# LAMMPS configuration file

320 atoms
312 bonds
312 angles

4 atom types
1 bond types
1 angle types

-2e-06 2e-06 xlo xhi
-2e-06 2e-06 ylo yhi
-2e-06 2e-06 zlo zhi

Masses

1 1
2 1
3 1
4 1

Atoms

1 1 1 -3e-07 3e-07 0.0
2 1 1 -1.5287003021334973e-07 3.097384379888061e-07 -2.7530615977808392e-08
3 1 1 -2.5111840078494983e-07 4.351813306987364e-07 -4.285553743331282e-08
4 1 2 -4.4468779787391e-07 2.7507265007219597e-07 3.072569563045528e-08
5 1 1 -2.4848848570547223e-07 4.352605226461824e-07 -3.938470399236524e-08
6 1 1 -3.852258551852849e-07 1.8112270343986319e-07 -3.323765892011842e-08
7 1 1 -2.3323845380260982e-07 3.13167216561603e-07 1.3367692529884723e-07
8 1 1 -3.3005997247349797e-07 2.122455739278833e-07 -1.1787942466624931e-07
9 1 1 -2.5170200562470605e-07 2.2963368075663545e-07 -1.2335268483281984e-07
10 1 1 -2.478034012287764e-07 2.3129747429651909e-07 1.2270076625139078e-07
11 1 2 -1.9948867585714923e-07 2.3312770541577974e-07 8.902567009628205e-08
12 1 1 -2.5176489943717124e-07 4.318573904343468e-07 -5.279207953413096e-08
13 1 1 -4.112759874673399e-07 3.627762636686817e-07 -7.85925908274346e-08
14 1 1 -3.8162963761986593e-07 2.408539039068902e-07 -1.1107808775358885e-07
15 1 1 -3.270258856833597e-07 3.33905585418502e-07 -1.435967018439443e-07
16 1 1 -1.8661007738888745e-07 3.43882502699248e-07 8.78467495533921e-08
17 1 1 -2.1712757109445674e-07 4.2480682596829485e-07 7.4442406607684086e-09
18 1 1 -2.135312272001716e-07 1.7850211745577701e-07 1.6168360082638482e-08
19 1 1 -4.240403136253912e-07 2.7187737845576015e-07 -7.951804042601927e-08
20 1 1 -1.6972258649591574e-07 3.573625597630925e-07 4.7300446806679176e-08
21 1 2 -3.4076253785036177e-07 1.876415334429444e-07 -9.06310680779215e-08
22 1 2 -2.6430904191368235e-07 2.604151869058024e-07 1.4021126232645566e-07
23 1 1 -3.223854978279254e-07 3.1784366863586e-07 1.4724297258820053e-07
24 1 1 -4.365404302633506e-07 3.6113289494067924e-07 1.0930693467065882e-08
25 1 1 -4.23454345980852e-07 2.7696419624986105e-07 -8.202667983055986e-08
26 1 2 -1.999059107958839e-07 2.552031549836494e-07 1.0234459430267686e-07
27 1 1 -1.7300396134323921e-07 3.608864948527064e-07 5.162209711007365e-08
28 1 1 -4.075005621465988e-07 2.2180682571931406e-07 -6.949429209708901e-08
29 1 2 -1.5107878485553351e-07 3.1141573519692013e-07 1.3861914363078561e-08
30 1 2 -3.4419883672881217e-07 4.422018791257032e-07 1.803020812244519e-08
31 1 1 -4.318891328477988e-07 2.503927789260317e-07 5.1423537937155975e-08
32 1 1 -4.26654679485739e-07 3.2378067124280126e-07 -7.676634574868422e-08
33 1 2 -3.786678633401959e-07 2.6316552594381256e-07 -1.2228895615914102e-07
34 1 1 -3.131592989630732e-07 3.023892684105937e-07 1.494025576998687e-07
35 1 2 -3.836817364998931e-07 4.136807066841099e-07 -5.07352333606914e-08
36 1 1 -3.7129360575248955e-07 1.776805273416639e-07 4.954965577473926e-08
37 1 2 -3.056528672694883e-07 3.712380945584379e-07 1.3188320202101783e-07
38 1 1 -3.853278149896062e-07 3.585392703445724e-07 1.0859243903985486e-07
39 1 1 -4.2593668949772045e-07 3.3169083887217145e-07 -7.507090628154696e-08
40 1 2 -4.0770189945949185e-07 3.7409822527956536e-07 -7.355102897469402e-08
41 1 2 -4.3278678618456587e-07 2.3023807998195907e-07 -9.715606881926985e-10
42 1 2 -2.3557652818788498e-07 4.3381791948972594e-07 -2.1032848193120705e-08
43 1 2 -2.2158933976830923e-07 3.4189821178202564e-07 1.2081518204058163e-07
44 1 1 -3.196147385778929e-07 4.4159895587734916e-07 -4.5442246037860444e-08
45 1 1 -3.0760100498712957e-07 3.306314558882984e-07 1.4664221299935724e-07
46 1 1 -2.8332828916014494e-07 3.193367029308395e-07 1.4781118353303556e-07
47 1 1 -3.233480624625163e-07 3.645335098575835e-07 -1.3338026122596853e-07
48 1 1 -3.1829195832693866e-07 4.069358156252129e-07 -1.0358636781515223e-07
49 1 1 -1.8002613033196883e-07 3.381777603344848e-07 -8.15397400824954e-08
50 1 1 -2.861099425514932e-07 2.420984870012288e-07 1.3767527409280983e-07
51 1 1 -3.9660712414492326e-07 2.799611554731638e-07 1.1298454883069931e-07
52 1 1 -4.2839231326301645e-07 2.674335462879209e-07 7.039062428754598e-08
53 1 1 -2.782820557376429e-07 3.28513117608344e-07 1.456548420797259e-07
54 1 1 -4.1253587248714106e-07 2.941611438690593e-07 9.900295532275844e-08
55 1 1 -3.463248827507358e-07 3.759819581205696e-07 1.2075076512508973e-07
56 1 1 -3.878722341359617e-07 3.4166724909179316e-07 -1.1420293700722932e-07
57 1 2 -4.147494348471716e-07 3.769227080001232e-07 5.8441972897759936e-08
58 1 1 -3.6936852747281616e-07 3.200762262031291e-07 1.3147225006705384e-07
59 1 1 -2.567975398229609e-07 3.6580024141519176e-07 -1.2768663071893563e-07
60 1 1 -1.7859815691699396e-07 2.1817957397829894e-07 -3.2665124853221127e-08
61 1 1 -2.824909811532981e-07 2.5963557269945635e-07 1.434020476413254e-07
62 1 1 -4.037736025146193e-07 3.245533073859673e-07 -1.0549016313167782e-07
63 1 1 -2.75205827222004e-07 1.551501345892953e-07 -3.006269260654499e-08
64 1 1 -2.725233381710392e-07 2.5331310773690795e-07 1.3987625654681843e-07
65 1 1 -4.342422401076226e-07 2.492450017082639e-07 4.362282796075076e-08
66 1 1 -1.5576129675723428e-07 2.8008089141344e-07 3.603367314002552e-08
67 1 1 -3.430058452358908e-07 2.459743448641943e-07 1.3316052666873017e-07
68 1 2 -2.2305214660621794e-07 2.407903514909298e-07 1.1433829359196063e-07
69 1 1 -3.909647792128027e-07 3.622276285144304e-07 -1.0175033755342584e-07
70 1 1 -4.0333138487806987e-07 2.8512389127829673e-07 -1.0770945310640219e-07
71 1 1 -4.2101165865935746e-07 3.566577339943973e-07 6.816215700175035e-08
72 1 1 -1.7464344501539822e-07 3.415541884687465e-07 7.112653192091122e-08
73 1 1 -2.58105044483562e-07 1.6346214968265214e-07 -4.5850061428456085e-08
74 1 2 -2.906426674329249e-07 4.050533497721354e-07 -1.0665943009824555e-07
75 1 1 -1.7719776448142667e-07 2.954594619695661e-07 8.601740792441396e-08
76 1 1 -3.8255592080899135e-07 3.0020849995030905e-07 1.2523767990165847e-07
77 1 1 -1.8531736390933443e-07 3.966738923026704e-07 -1.4323150308721704e-09
78 1 1 -3.6385720144427343e-07 4.3260769336653885e-07 2.8938857678068297e-08
79 1 1 -2.717657217797819e-07 2.8815496335251436e-07 1.4684182183629784e-07
80 1 2 -4.393420403361114e-07 3.512142635246566e-07 2.1468465399197122e-08
81 2 1 -3e-07 -3e-07 0.0
82 2 1 -3.9844773373754023e-07 -3.051041618425507e-07 -1.1305746881045688e-07
83 2 2 -2.52776770933887e-07 -4.0837151833449103e-07 -9.23340709080158e-08
84 2 1 -3.04066514112263e-07 -1.5080953504564398e-07 -1.5022271122498107e-08
85 2 1 -2.0784493075521183e-07 -3.2946533572841124e-07 -1.1462651178021737e-07
86 2 1 -3.7819411599403353e-07 -2.393233243955497e-07 -1.1271211674662108e-07
87 2 1 -4.1179233754646586e-07 -2.935993727393434e-07 9.980734059460346e-08
88 2 1 -1.7276393349554637e-07 -2.6969115334814063e-07 -7.343267116963902e-08
89 2 1 -1.5350689265488803e-07 -3.322143775683554e-07 1.4154074526247876e-09
90 2 1 -4.1706803461218256e-07 -2.9889874454157297e-07 -9.377559655078766e-08
91 2 2 -3.190557680430288e-07 -4.0335826767518843e-07 -1.0702311062324047e-07
92 2 1 -3.6203292031846514e-07 -4.235036371019874e-07 -5.8298957274925184e-08
93 2 1 -3.732236311986787e-07 -4.282071632727638e-07 2.648061781059428e-08
94 2 1 -4.212067126536124e-07 -2.752633409254078e-07 8.483531402388995e-08
95 2 2 -2.4804692883570904e-07 -4.385690367155042e-07 2.448469849386286e-08
96 2 2 -1.5865231009896862e-07 -3.427566715814966e-07 2.6319148825786707e-08
97 2 1 -2.5351212022981763e-07 -2.3792307059911238e-07 1.2839521747569214e-07
98 2 1 -3.827186425690411e-07 -4.167545022755562e-07 -4.501124714915531e-08
99 2 1 -1.9402757456672728e-07 -3.2959353649912225e-07 1.0195130036083196e-07
100 2 1 -3.2580897519996957e-07 -4.3950535208846785e-07 4.87047588824743e-08
101 2 1 -3.9075529505964723e-07 -1.9747578173521953e-07 6.125570249235592e-08
102 2 1 -3.231600200836239e-07 -4.450268711134185e-07 3.050934487625117e-08
103 2 1 -2.26616540758395e-07 -3.6701621628202894e-07 -1.1235521645645125e-07
104 2 1 -2.6329520628411487e-07 -2.8496389000529354e-07 1.446605458115702e-07
105 2 1 -4.451582797735093e-07 -2.915474278434794e-07 3.6846001643793e-08
106 2 1 -4.4476357651908357e-07 -3.167918021654813e-07 -3.5518196652402945e-08
107 2 1 -3.655638055202848e-07 -3.821930260293361e-07 -1.069845497155507e-07
108 2 1 -2.895654006889505e-07 -4.284920304174713e-07 -7.668713879402122e-08
109 2 1 -2.853170935571766e-07 -4.4681837197146616e-07 -2.699588690966649e-08
110 2 1 -1.756597819020734e-07 -2.443322766268841e-07 -6.277431590877197e-08
111 2 1 -3.7626810933062474e-07 -1.984207336124492e-07 -7.977987302132574e-08
112 2 2 -3.376733297298657e-07 -2.2744709164653778e-07 1.2576484292726216e-07
113 2 1 -4.2289474267312135e-07 -2.1871206161166445e-07 -2.8091872416794195e-08
114 2 2 -3.0725001859140525e-07 -4.4857522621477246e-07 -1.9309049320291907e-08
115 2 1 -4.4509069675720183e-07 -3.2935305206486e-07 -2.422989989635342e-08
116 2 2 -4.283558629881265e-07 -3.1766464319786293e-07 7.55826224555982e-08
117 2 2 -2.4417584330057214e-07 -4.3067120146673325e-07 -4.804894000951657e-08
118 2 1 -1.8049830379737733e-07 -3.8937883911695575e-07 1.5191040872876935e-08
119 2 2 -1.8569747423494722e-07 -2.8377188429315933e-07 -9.576837089736271e-08
120 2 2 -2.544282580067791e-07 -1.7166761662754552e-07 -6.288096460494768e-08
121 2 1 -3.9088727492971637e-07 -3.759467798519231e-07 9.204124013709109e-08
122 2 2 -2.7713086885450327e-07 -4.2416599511306534e-07 -8.099264471686492e-08
123 2 1 -2.046420197267718e-07 -3.357933847460132e-07 -1.101167072093717e-07
124 2 1 -3.91164449685426e-07 -3.6925181795253696e-07 9.691867118270918e-08
125 2 2 -2.21487476084901e-07 -1.892076183950002e-07 -6.372465587802824e-08
126 2 2 -3.219395204670122e-07 -2.3534744232016356e-07 -1.3356161210143046e-07
127 2 1 -2.448528325579136e-07 -3.3477312706755595e-07 -1.3509115277122365e-07
128 2 2 -3.43292750881091e-07 -1.5719657819957918e-07 -1.5261731331631198e-08
129 2 1 -3.1394758094759e-07 -1.537583166977126e-07 -3.0312292071433816e-08
130 2 1 -2.666227996557007e-07 -1.6245727644173902e-07 -4.9678583850108954e-08
131 2 2 -2.2292727519529423e-07 -1.777276186111541e-07 4.0115581021327736e-08
132 2 1 -1.8407231159461784e-07 -2.2319176234907667e-07 -5.622513396999524e-08
133 2 1 -4.478872598451327e-07 -2.7548042425871656e-07 5.305542476096326e-09
134 2 1 -3.844637488560901e-07 -1.8188051663109328e-07 3.759870712987219e-08
135 2 2 -3.81141606603596e-07 -1.8323383529992407e-07 -4.7767169259042525e-08
136 2 2 -2.497903283806437e-07 -2.403012394268809e-07 -1.2812121940533426e-07
137 2 2 -1.6040353965327822e-07 -3.547470021029197e-07 -3.948926361562181e-09
138 2 1 -3.2379662937542695e-07 -1.8737771919093847e-07 -9.617662031769187e-08
139 2 2 -2.4359084653564635e-07 -2.814423868968199e-07 -1.377447726824785e-07
140 2 1 -1.7715475458192975e-07 -2.1449293384132295e-07 -9.878629212078043e-09
141 2 1 -2.734977782483939e-07 -4.1984731868867495e-07 8.62221111163713e-08
142 2 1 -2.13887394874636e-07 -4.0927768954865003e-07 5.606251693807542e-08
143 2 1 -4.4557113193960646e-07 -3.35530616794093e-07 6.827943764633131e-09
144 2 1 -3.6341274223849233e-07 -2.9120754065729883e-07 1.3565219047439476e-07
145 2 1 -3.97635229103919e-07 -2.7813288046473223e-07 1.1175504964454874e-07
146 2 2 -4.2589350249221763e-07 -2.655111064447673e-07 -7.390089479551531e-08
147 2 2 -2.098309197007279e-07 -1.8089315957767133e-07 -1.353135331714334e-08
148 2 1 -4.031665159693144e-07 -4.020863037120427e-07 -3.7882140609603325e-08
149 2 2 -2.909087404799481e-07 -2.47858449065924e-07 -1.4035172840591675e-07
150 2 1 -2.1976047219019036e-07 -3.3949128069809895e-07 -1.2042448640406464e-07
151 2 1 -3.2706686012885777e-07 -1.5634953107991183e-07 -3.3644135622774324e-08
152 2 1 -2.37266613053611e-07 -1.6826842472171533e-07 -3.4803939962829705e-08
153 2 1 -2.922951102096114e-07 -3.1415956404378875e-07 -1.4913128920319775e-07
154 2 1 -1.9090019819407079e-07 -3.7543170180668654e-07 7.00520635560016e-08
155 2 1 -3.4453699883533024e-07 -4.2892469112454304e-07 6.240897173630531e-08
156 2 1 -2.4332038259895896e-07 -3.074296330392348e-07 1.3868028527578792e-07
157 2 1 -2.0017964995278303e-07 -2.0993177204529437e-07 -6.651024003527767e-08
158 2 2 -3.9161022933452686e-07 -2.1007930930679083e-07 7.760048496325004e-08
159 2 1 -2.9062220944470305e-07 -4.492424488092358e-07 -1.1779156070093375e-08
160 2 1 -3.2747799956090205e-07 -4.3900799674760176e-07 -4.9211140815366106e-08
161 3 1 3e-07 -3e-07 0.0
162 3 1 3.06045239605494e-07 -3.8754274917047825e-07 -1.2165410862682315e-07
163 3 2 3.191230945097239e-07 -2.274568740819534e-07 -1.298915014094864e-07
164 3 1 2.7422623026111556e-07 -1.705238678656817e-07 -7.121547585310032e-08
165 3 1 2.353815804714164e-07 -4.347108876014961e-07 1.3320533744750616e-08
166 3 1 3.823953379751579e-07 -4.2424915622540776e-07 -1.652741532223684e-08
167 3 2 3.334786629056736e-07 -3.218977568195546e-07 1.4456717254037975e-07
168 3 1 1.614695118218181e-07 -3.3173403449878233e-07 4.798181842682392e-08
169 3 2 3.184606631829598e-07 -2.0925559940307172e-07 1.1800278672620201e-07
170 3 1 1.883481530664494e-07 -2.852401442760149e-07 9.90757878360507e-08
171 3 1 2.0197968716928082e-07 -3.0550481442462637e-07 -1.1340950264734596e-07
172 3 2 4.3875782066478674e-07 -2.479057137670103e-07 -2.3074933287752258e-08
173 3 2 4.3514009062244595e-07 -3.3472986077031755e-07 5.5054451931078646e-08
174 3 1 2.441409182152319e-07 -3.9082879083327307e-07 1.0549831154065028e-07
175 3 1 2.6643526337163953e-07 -1.614741245184081e-07 -4.673318175694117e-08
176 3 1 3.343017953668313e-07 -3.071275774788804e-07 -1.4585124090625553e-07
177 3 2 3.4435759311769104e-07 -3.5273648690996514e-07 1.3323388038033135e-07
178 3 2 4.1047302019466574e-07 -3.936725909510678e-07 3.900201935262962e-08
179 3 1 3.83480146909713e-07 -4.21941205691246e-07 2.571784257082942e-08
180 3 1 1.5408258745711825e-07 -2.7697693451052897e-07 -2.6039338936654814e-08
181 3 1 2.48922386740807e-07 -3.0995109647695446e-07 -1.4068423189060902e-07
182 3 1 3.873005055728694e-07 -2.8689747117495205e-07 1.2127219576271465e-07
183 3 1 2.4779685616033546e-07 -3.576317161740105e-07 1.2827087379484708e-07
184 3 1 3.9154529664936094e-07 -3.991553942875476e-07 6.548027523660439e-08
185 3 1 2.869169792683025e-07 -2.961971629092057e-07 1.4937996183757328e-07
186 3 1 1.6872920407797722e-07 -2.8961106650986207e-07 7.18334754758263e-08
187 3 2 1.9884281776160237e-07 -3.918599808103543e-07 6.187865873715231e-08
188 3 2 2.492582917343546e-07 -4.3196660824003956e-07 -5.010083184842388e-08
189 3 2 2.0091749130337356e-07 -1.958198594825251e-07 4.27686192452146e-08
190 3 2 2.8226147974745867e-07 -2.626320338498038e-07 -1.441838409983864e-07
191 3 1 1.9587914228948332e-07 -2.4891728186808126e-07 9.512834960137421e-08
192 3 1 4.3470184012656615e-07 -2.6727611422628573e-07 -5.731109461863307e-08
193 3 1 2.6997842948543983e-07 -1.9907391930399443e-07 -1.0682991874555864e-07
194 3 1 3.1864212953110066e-07 -3.7746794112029525e-07 1.270873286568261e-07
195 3 2 3.7875164375288614e-07 -1.7312240978043777e-07 -1.4151173318681123e-08
196 3 1 2.0319191893710959e-07 -1.861260348434753e-07 1.2685247354759729e-08
197 3 1 3.332117340293706e-07 -4.2931568718899063e-07 -6.836983084373881e-08
198 3 1 3.9860936117059e-07 -4.020716099370839e-07 -4.8554920805001056e-08
199 3 1 3.6204018566848297e-07 -1.6478772716721198e-07 -1.9200433266253288e-08
200 3 1 4.497302985294715e-07 -3.0891587622536864e-07 -1.1596781489842256e-09
201 3 2 3.264451027872301e-07 -4.0565363426912384e-07 1.0314051630808837e-07
202 3 2 3.357209333193283e-07 -1.5826588676658153e-07 3.3696529030934556e-08
203 3 1 4.4659225113885707e-07 -2.953718133342386e-07 -3.1453009303230764e-08
204 3 1 3.185015017291066e-07 -3.976164236451568e-07 1.1237761462363014e-07
205 3 1 2.0465789468804774e-07 -4.0720345717759934e-07 -4.3787004052061174e-08
206 3 1 2.43658526739309e-07 -1.613741924422465e-07 -1.04174790508804e-08
207 3 1 2.3104943022681424e-07 -2.3702902787268477e-07 1.1739027045413063e-07
208 3 2 4.2190593762955155e-07 -2.1289246680813904e-07 7.156817161889861e-09
209 3 1 3.8674621532997193e-07 -2.1470675238322118e-07 8.775053297222185e-08
210 3 1 1.853888960943965e-07 -2.1111631567039368e-07 3.8262063738562986e-08
211 3 1 4.455128072885316e-07 -2.8771130414956785e-07 3.4278431546764737e-08
212 3 2 3.407348645572353e-07 -3.5570050759646284e-07 -1.3318454964071498e-07
213 3 2 4.295389532957054e-07 -2.9700982227001994e-07 7.556929545917572e-08
214 3 1 3.36924685999347e-07 -2.0230131804065718e-07 1.07663991692937e-07
215 3 2 4.222023708735921e-07 -2.523476881226157e-07 7.277250666023223e-08
216 3 2 1.8286680594338999e-07 -3.0937636163185187e-07 -9.323035285058877e-08
217 3 1 2.429254397589475e-07 -4.3168243350907813e-07 4.361457644432292e-08
218 3 1 1.8324541669831683e-07 -2.5645844778296e-07 -8.350150003791014e-08
219 3 1 3.488614913643346e-07 -4.3013036559547555e-07 -5.6379452033882995e-08
220 3 2 1.9403641876944773e-07 -2.5741750545795867e-07 -9.725456601812164e-08
221 3 1 2.710289520006933e-07 -1.5292864282755244e-07 5.54024162615886e-09
222 3 1 1.885883269055102e-07 -2.0057766036670703e-07 -1.4235079210481454e-08
223 3 1 3.691905434432384e-07 -3.9928918035109115e-07 8.862464309230153e-08
224 3 1 3.5723505402272636e-07 -4.302814867073659e-07 -4.744346964898353e-08
225 3 2 2.3968414248472877e-07 -3.5325758875201847e-07 1.2659236380018492e-07
226 3 1 1.5296957991715347e-07 -3.1970740695805806e-07 2.2218768670904524e-08
227 3 1 3.4706491597100276e-07 -4.248678679140225e-07 6.850481185470601e-08
228 3 2 4.4279167968344893e-07 -3.287871184990433e-07 -3.580276555939995e-08
229 3 1 2.455912942126678e-07 -4.220643873439636e-07 -6.81173845423496e-08
230 3 2 3.077932795456703e-07 -4.1702466961937194e-07 9.351198583283254e-08
231 3 1 2.5021517275026556e-07 -2.461275650161193e-07 1.3084048197947626e-07
232 3 2 4.2844843723520257e-07 -2.2253399353738692e-07 1.2967100144846089e-10
233 3 2 3.812519925430623e-07 -3.20495288800702e-07 -1.244108389359945e-07
234 3 1 2.8367198826844916e-07 -4.412850663943606e-07 4.76647253934758e-08
235 3 1 1.9385363965765154e-07 -3.678297554947237e-07 -8.14375494203891e-08
236 3 1 4.0383770504826164e-07 -2.234946348805804e-07 -7.658106892864916e-08
237 3 1 3.278955732657884e-07 -3.6491399565610107e-07 -1.3231783764909672e-07
238 3 1 3.745974072767336e-07 -1.7368221592245664e-07 -3.128968285758527e-08
239 3 1 2.967246130311762e-07 -4.374800972797961e-07 5.990404570763353e-08
240 3 2 2.5406067288356097e-07 -3.647517484030286e-07 1.2726660717894418e-07
241 4 1 3e-07 3e-07 0.0
242 4 1 4.48215878130301e-07 3.0484584224495164e-07 2.255152507039853e-08
243 4 1 3.199303325681119e-07 1.9328917353992834e-07 -1.0351609227522517e-07
244 4 2 3.6335458812045857e-07 3.9633591685181103e-07 -9.594575179969139e-08
245 4 2 3.854757131512503e-07 3.862120109036501e-07 -8.809876070203309e-08
246 4 2 3.1125803521351966e-07 1.5764466831963968e-07 -4.591531536759553e-08
247 4 2 3.4892222654133776e-07 3.6609052730513237e-07 1.2545380803613567e-07
248 4 1 2.2900498319852612e-07 4.234518118220412e-07 -4.711005993642723e-08
249 4 2 3.7708776871930477e-07 1.8802054578346098e-07 6.338830923163214e-08
250 4 2 2.595574320763952e-07 3.4951776597941564e-07 1.3569226047255768e-07
251 4 2 3.3041601226558634e-07 4.2706878504604276e-07 -7.36776089784561e-08
252 4 2 1.5899635420500332e-07 2.9421323590045105e-07 -5.083783270139766e-08
253 4 1 3.5090983776351746e-07 2.9128931079217724e-07 1.408272427920715e-07
254 4 1 4.4991763618180747e-07 2.966461941909075e-07 -3.66801693754339e-09
255 4 1 2.310699561549078e-07 4.323978332482984e-07 -1.481427712274324e-08
256 4 2 2.793864158744322e-07 4.4043623651887094e-07 -4.8505088618761146e-08
257 4 1 4.4564265532240775e-07 2.968216358221445e-07 3.5750733583959606e-08
258 4 1 2.450307148829325e-07 2.1974249813857934e-07 -1.1418016941957393e-07
259 4 2 1.9725632331478554e-07 2.853210153268946e-07 1.0829711127343542e-07
260 4 1 2.505680987460979e-07 2.7064108855217683e-07 -1.3854436638500806e-07
261 4 1 1.614570085448103e-07 2.6386585764196357e-07 -4.472318497934154e-08
262 4 2 2.6091987095868315e-07 1.8132954763729117e-07 8.300642896874966e-08
263 4 2 1.5151917136589516e-07 3.0851676667832477e-07 -1.9516869971298385e-08
264 4 1 2.3480568198113862e-07 1.7394699809950287e-07 4.858334704329084e-08
265 4 1 3.3223064096988533e-07 3.380436340149841e-07 -1.4147037744207896e-07
266 4 1 2.2965993047654528e-07 4.0420194338353195e-07 8.181827188672931e-08
267 4 1 4.2321414627034115e-07 2.1449651153015606e-07 2.7253657292643385e-09
268 4 1 4.145413129967671e-07 3.9439834196844697e-07 2.166196322092645e-08
269 4 2 3.816419446429929e-07 2.0080209385283477e-07 7.742330586411747e-08
270 4 1 1.631398199756904e-07 3.146724850568599e-07 5.961551229310862e-08
271 4 1 1.7130139791325927e-07 3.470316220038293e-07 6.103029045160846e-08
272 4 2 4.127236556743586e-07 2.5347356718693713e-07 8.734224923311844e-08
273 4 1 3.191154098432635e-07 1.625326874888462e-07 -5.689761943600847e-08
274 4 2 3.6828688290299e-07 4.3102230329392614e-07 2.588547204413625e-08
275 4 1 1.6640025938376699e-07 3.1654017743826285e-07 6.616291890164793e-08
276 4 1 3.727545311474195e-07 2.924593325501084e-07 -1.309576898541254e-07
277 4 1 2.0088435331326092e-07 1.8925922488329774e-07 -2.0311802195312202e-08
278 4 1 4.0874617085856925e-07 2.0733862291441207e-07 -4.569616526801061e-08
279 4 1 4.4312197623803694e-07 3.350712895524893e-07 2.8037556363639202e-08
280 4 1 1.8734322037357469e-07 2.0101458445415234e-07 3.215200369946766e-09
281 4 1 2.527278191514222e-07 1.579902019286151e-07 -9.927646727389678e-09
282 4 1 2.6001980725594065e-07 1.5543009723866174e-07 -1.0617926940177419e-09
283 4 2 2.3183011653051037e-07 3.3186426331897203e-07 -1.2975953032781605e-07
284 4 2 1.8285596557829572e-07 3.9002921553804355e-07 2.592326269995859e-08
285 4 1 2.5475782838094883e-07 4.2737616352887886e-07 -6.502660126330317e-08
286 4 2 3.4813509064226593e-07 4.4032414743209e-07 -2.2184379556748794e-08
287 4 2 2.619840062312045e-07 3.171384978563307e-07 1.4408697411285814e-07
288 4 1 4.3481783763582334e-07 2.490475094818282e-07 -4.15691516054439e-08
289 4 1 4.136892961015967e-07 2.1359800888470588e-07 -4.5928639030958764e-08
290 4 1 1.5411280705422352e-07 3.292663655005986e-07 -1.8984382654886573e-08
291 4 2 3.1196811873926093e-07 2.7405221017962537e-07 -1.4725310298014304e-07
292 4 1 1.6395853047928833e-07 3.6220208745433926e-07 -1.1118403076341778e-08
293 4 2 4.2966095662401057e-07 2.4176188644263716e-07 4.7920334479489485e-08
294 4 1 3.0767815360581817e-07 4.422901762199816e-07 4.684604261292567e-08
295 4 1 3.931317201681685e-07 2.2833290262345974e-07 9.322183141378121e-08
296 4 1 3.7903147185497517e-07 2.1147004044518613e-07 9.174133592693801e-08
297 4 2 4.381130558933605e-07 3.561501243086173e-07 1.6490825689586068e-08
298 4 2 4.0284243303418255e-07 3.013420665424379e-07 1.0918623001553514e-07
299 4 2 2.784739986163129e-07 2.6173323200143246e-07 1.4343042122009301e-07
300 4 2 3.4568420564067647e-07 1.7454818539731956e-07 6.837247668378759e-08
301 4 1 3.7526315330977646e-07 3.6456571244349957e-07 -1.1254655272611597e-07
302 4 1 3.386208990173547e-07 4.4338535268694364e-07 2.1191196142079014e-08
303 4 2 3.44957202324734e-07 2.0363284817733104e-07 1.0579329850571632e-07
304 4 1 3.839573592590959e-07 2.092611389363495e-07 -8.495658255315262e-08
305 4 2 3.8805457994391364e-07 3.703331176560863e-07 -9.899314881180436e-08
306 4 1 1.9452197788773314e-07 2.8872647493019066e-07 -1.0605326248534047e-07
307 4 2 2.5528092604306555e-07 3.278145217805759e-07 -1.4045126130637665e-07
308 4 1 2.9087588828349603e-07 2.084813083695607e-07 -1.1849506178587072e-07
309 4 2 2.145589446281347e-07 3.8260332365731846e-07 -9.152331384792698e-08
310 4 1 1.5948624527031764e-07 2.9361935585629175e-07 5.2107313422187e-08
311 4 1 2.111413110643625e-07 4.1685729350083064e-07 -3.079783038300481e-08
312 4 2 4.0418346932732e-07 3.795518520157871e-07 -7.291987081572264e-08
313 4 1 3.5479928408836324e-07 2.1834149697256012e-07 1.1326485486116362e-07
314 4 1 4.373240097788474e-07 3.258568860902527e-07 -5.453015477673534e-08
315 4 1 4.3116258588033416e-07 2.3010285409657346e-07 -2.0267339730193065e-08
316 4 1 2.3188828401011354e-07 3.8330653289245146e-07 -1.0450270677045615e-07
317 4 1 2.473724636521506e-07 4.3002466321891684e-07 -5.3140656495408774e-08
318 4 1 2.3316179240410223e-07 2.8244532959865016e-07 -1.3313334500592874e-07
319 4 1 4.1203855469690533e-07 3.9413040392167955e-07 -3.296709448783739e-08
320 4 1 2.4755537925547344e-07 3.8472389289480095e-07 1.1212236051614802e-07

Bonds

1 1 1 2
2 1 2 3
3 1 3 4
4 1 4 5
5 1 5 6
6 1 6 7
7 1 7 8
8 1 8 9
9 1 9 10
10 1 10 11
11 1 11 12
12 1 12 13
13 1 13 14
14 1 14 15
15 1 15 16
16 1 16 17
17 1 17 18
18 1 18 19
19 1 19 20
20 1 20 21
21 1 21 22
22 1 22 23
23 1 23 24
24 1 24 25
25 1 25 26
26 1 26 27
27 1 27 28
28 1 28 29
29 1 29 30
30 1 30 31
31 1 31 32
32 1 32 33
33 1 33 34
34 1 34 35
35 1 35 36
36 1 36 37
37 1 37 38
38 1 38 39
39 1 39 40
40 1 40 41
41 1 41 42
42 1 42 43
43 1 43 44
44 1 44 45
45 1 45 46
46 1 46 47
47 1 47 48
48 1 48 49
49 1 49 50
50 1 50 51
51 1 51 52
52 1 52 53
53 1 53 54
54 1 54 55
55 1 55 56
56 1 56 57
57 1 57 58
58 1 58 59
59 1 59 60
60 1 60 61
61 1 61 62
62 1 62 63
63 1 63 64
64 1 64 65
65 1 65 66
66 1 66 67
67 1 67 68
68 1 68 69
69 1 69 70
70 1 70 71
71 1 71 72
72 1 72 73
73 1 73 74
74 1 74 75
75 1 75 76
76 1 76 77
77 1 77 78
78 1 78 79
79 1 81 82
80 1 82 83
81 1 83 84
82 1 84 85
83 1 85 86
84 1 86 87
85 1 87 88
86 1 88 89
87 1 89 90
88 1 90 91
89 1 91 92
90 1 92 93
91 1 93 94
92 1 94 95
93 1 95 96
94 1 96 97
95 1 97 98
96 1 98 99
97 1 99 100
98 1 100 101
99 1 101 102
100 1 102 103
101 1 103 104
102 1 104 105
103 1 105 106
104 1 106 107
105 1 107 108
106 1 108 109
107 1 109 110
108 1 110 111
109 1 111 112
110 1 112 113
111 1 113 114
112 1 114 115
113 1 115 116
114 1 116 117
115 1 117 118
116 1 118 119
117 1 119 120
118 1 120 121
119 1 121 122
120 1 122 123
121 1 123 124
122 1 124 125
123 1 125 126
124 1 126 127
125 1 127 128
126 1 128 129
127 1 129 130
128 1 130 131
129 1 131 132
130 1 132 133
131 1 133 134
132 1 134 135
133 1 135 136
134 1 136 137
135 1 137 138
136 1 138 139
137 1 139 140
138 1 140 141
139 1 141 142
140 1 142 143
141 1 143 144
142 1 144 145
143 1 145 146
144 1 146 147
145 1 147 148
146 1 148 149
147 1 149 150
148 1 150 151
149 1 151 152
150 1 152 153
151 1 153 154
152 1 154 155
153 1 155 156
154 1 156 157
155 1 157 158
156 1 158 159
157 1 161 162
158 1 162 163
159 1 163 164
160 1 164 165
161 1 165 166
162 1 166 167
163 1 167 168
164 1 168 169
165 1 169 170
166 1 170 171
167 1 171 172
168 1 172 173
169 1 173 174
170 1 174 175
171 1 175 176
172 1 176 177
173 1 177 178
174 1 178 179
175 1 179 180
176 1 180 181
177 1 181 182
178 1 182 183
179 1 183 184
180 1 184 185
181 1 185 186
182 1 186 187
183 1 187 188
184 1 188 189
185 1 189 190
186 1 190 191
187 1 191 192
188 1 192 193
189 1 193 194
190 1 194 195
191 1 195 196
192 1 196 197
193 1 197 198
194 1 198 199
195 1 199 200
196 1 200 201
197 1 201 202
198 1 202 203
199 1 203 204
200 1 204 205
201 1 205 206
202 1 206 207
203 1 207 208
204 1 208 209
205 1 209 210
206 1 210 211
207 1 211 212
208 1 212 213
209 1 213 214
210 1 214 215
211 1 215 216
212 1 216 217
213 1 217 218
214 1 218 219
215 1 219 220
216 1 220 221
217 1 221 222
218 1 222 223
219 1 223 224
220 1 224 225
221 1 225 226
222 1 226 227
223 1 227 228
224 1 228 229
225 1 229 230
226 1 230 231
227 1 231 232
228 1 232 233
229 1 233 234
230 1 234 235
231 1 235 236
232 1 236 237
233 1 237 238
234 1 238 239
235 1 241 242
236 1 242 243
237 1 243 244
238 1 244 245
239 1 245 246
240 1 246 247
241 1 247 248
242 1 248 249
243 1 249 250
244 1 250 251
245 1 251 252
246 1 252 253
247 1 253 254
248 1 254 255
249 1 255 256
250 1 256 257
251 1 257 258
252 1 258 259
253 1 259 260
254 1 260 261
255 1 261 262
256 1 262 263
257 1 263 264
258 1 264 265
259 1 265 266
260 1 266 267
261 1 267 268
262 1 268 269
263 1 269 270
264 1 270 271
265 1 271 272
266 1 272 273
267 1 273 274
268 1 274 275
269 1 275 276
270 1 276 277
271 1 277 278
272 1 278 279
273 1 279 280
274 1 280 281
275 1 281 282
276 1 282 283
277 1 283 284
278 1 284 285
279 1 285 286
280 1 286 287
281 1 287 288
282 1 288 289
283 1 289 290
284 1 290 291
285 1 291 292
286 1 292 293
287 1 293 294
288 1 294 295
289 1 295 296
290 1 296 297
291 1 297 298
292 1 298 299
293 1 299 300
294 1 300 301
295 1 301 302
296 1 302 303
297 1 303 304
298 1 304 305
299 1 305 306
300 1 306 307
301 1 307 308
302 1 308 309
303 1 309 310
304 1 310 311
305 1 311 312
306 1 312 313
307 1 313 314
308 1 314 315
309 1 315 316
310 1 316 317
311 1 317 318
312 1 318 319

Angles

1 1 1 2 3
2 1 2 3 4
3 1 3 4 5
4 1 4 5 6
5 1 5 6 7
6 1 6 7 8
7 1 7 8 9
8 1 8 9 10
9 1 9 10 11
10 1 10 11 12
11 1 11 12 13
12 1 12 13 14
13 1 13 14 15
14 1 14 15 16
15 1 15 16 17
16 1 16 17 18
17 1 17 18 19
18 1 18 19 20
19 1 19 20 21
20 1 20 21 22
21 1 21 22 23
22 1 22 23 24
23 1 23 24 25
24 1 24 25 26
25 1 25 26 27
26 1 26 27 28
27 1 27 28 29
28 1 28 29 30
29 1 29 30 31
30 1 30 31 32
31 1 31 32 33
32 1 32 33 34
33 1 33 34 35
34 1 34 35 36
35 1 35 36 37
36 1 36 37 38
37 1 37 38 39
38 1 38 39 40
39 1 39 40 41
40 1 40 41 42
41 1 41 42 43
42 1 42 43 44
43 1 43 44 45
44 1 44 45 46
45 1 45 46 47
46 1 46 47 48
47 1 47 48 49
48 1 48 49 50
49 1 49 50 51
50 1 50 51 52
51 1 51 52 53
52 1 52 53 54
53 1 53 54 55
54 1 54 55 56
55 1 55 56 57
56 1 56 57 58
57 1 57 58 59
58 1 58 59 60
59 1 59 60 61
60 1 60 61 62
61 1 61 62 63
62 1 62 63 64
63 1 63 64 65
64 1 64 65 66
65 1 65 66 67
66 1 66 67 68
67 1 67 68 69
68 1 68 69 70
69 1 69 70 71
70 1 70 71 72
71 1 71 72 73
72 1 72 73 74
73 1 73 74 75
74 1 74 75 76
75 1 75 76 77
76 1 76 77 78
77 1 77 78 79
78 1 78 79 80
79 1 81 82 83
80 1 82 83 84
81 1 83 84 85
82 1 84 85 86
83 1 85 86 87
84 1 86 87 88
85 1 87 88 89
86 1 88 89 90
87 1 89 90 91
88 1 90 91 92
89 1 91 92 93
90 1 92 93 94
91 1 93 94 95
92 1 94 95 96
93 1 95 96 97
94 1 96 97 98
95 1 97 98 99
96 1 98 99 100
97 1 99 100 101
98 1 100 101 102
99 1 101 102 103
100 1 102 103 104
101 1 103 104 105
102 1 104 105 106
103 1 105 106 107