# LAMMPS configuration file

80 atoms
78 bonds
78 angles

1 atom types
1 bond types
1 angle types

-1e-05 1e-05 xlo xhi
-1e-05 1e-05 ylo yhi
-1e-05 1e-05 zlo zhi

Masses

1 1

Atoms

1 1 1 0.0 0.0 0.0
2 1 1 -1.9839588977407942e-07 1.2427266608699774e-08 2.2014403589187165e-08
3 1 1 7.762569437060746e-08 1.8347139560416318e-07 1.7677629041861962e-08
4 1 1 1.6275773757749193e-07 -1.0202651822093342e-07 -5.568220935244764e-08
5 1 1 1.8011364968634602e-07 5.639544423118085e-08 6.617119514284134e-08
6 1 1 -1.0026335117454618e-07 1.4442780266940995e-07 9.533032165756918e-08
7 1 1 -1.5995972261983215e-09 -1.9997442326496807e-07 -2.769716331562785e-09
8 1 1 1.8181601479447147e-07 6.145735789575013e-08 -5.626659688243286e-08
9 1 1 -7.60049672888023e-08 -8.604338513674261e-08 1.6376745959328507e-07
10 1 1 -1.6226656294771364e-07 1.57737989712186e-08 1.1584795990931937e-07
11 1 1 1.464069067544701e-07 1.1028602413464587e-07 -8.001256485802841e-08
12 1 1 -5.360008285566478e-09 1.94623413319102e-07 4.5749287417408476e-08
13 1 1 1.6150227089062604e-07 -9.276308530253363e-08 -7.288365044593821e-08
14 1 1 3.523180393128179e-08 -1.1424344961619787e-07 1.6033450723889407e-07
15 1 1 -9.949337647767103e-08 -6.47299754035707e-08 1.609692465079139e-07
16 1 1 -1.0131028115792833e-07 -6.436038278382486e-08 -1.599811490758241e-07
17 1 1 -1.4228372179662977e-07 9.867454472471131e-08 1.000933401134671e-07
18 1 1 -9.638957762082376e-08 -1.3478591116011273e-07 1.1199021153126453e-07
19 1 1 -6.246273438688186e-08 3.200945470063888e-08 1.8728000860391268e-07
20 1 1 -7.89070584714436e-08 1.6576703500224697e-07 -7.934082322454194e-08
21 1 1 1.472968243171369e-07 -5.811093591022108e-08 -1.2217513934399532e-07
22 1 1 8.750682245981253e-08 -1.6776734330066368e-07 6.478174545984469e-08
23 1 1 5.0970376336343045e-08 -6.429349063849968e-09 1.9328912076665547e-07
24 1 1 -9.361336436086617e-08 -1.7672033437841536e-07 -2.5419343462745103e-09
25 1 1 -9.511076388149543e-08 1.2497452175139075e-07 1.2383582481208569e-07
26 1 1 1.5431611209782968e-07 -1.2630518558063659e-07 1.5281938438922452e-08
27 1 1 -1.3073357835842735e-07 -1.122767057944023e-07 1.0150208286315194e-07
28 1 1 -1.750862073000621e-07 -6.396785898037554e-08 7.247712073990298e-08
29 1 1 3.706717529296614e-08 8.291640365768272e-08 1.7818780687880062e-07
30 1 1 -7.909810060035513e-08 1.349160721394112e-07 1.2466412459039404e-07
31 1 1 -1.721495207613465e-07 6.173628369579938e-08 -8.095167556678803e-08
32 1 1 5.520776187051196e-08 -7.768691481040484e-08 1.758318693994059e-07
33 1 1 1.4601783541545202e-07 -1.3285754426679653e-07 -3.205720936048801e-08
34 1 1 1.9528368983740547e-07 -3.3519466242400216e-10 4.31760133410474e-08
35 1 1 1.757412600655608e-08 1.903868706318561e-07 5.868551427835129e-08
36 1 1 -1.0153738144627304e-07 1.5936302739807482e-07 -6.552545816363669e-08
37 1 1 3.078963483919173e-08 -9.26844720914809e-08 -1.745324812738097e-07
38 1 1 8.83065939618837e-08 5.930396299959015e-08 1.6936642357738518e-07
39 1 1 -1.6974135425485138e-07 -3.339292969587628e-08 1.003632647040505e-07
40 1 1 9.02486374830507e-08 -1.67203733727905e-07 6.243472479238414e-08
41 1 1 -1.1353908207204705e-07 -9.903044878393001e-10 1.646447573998587e-07
42 1 1 -5.634768565446493e-08 7.78376297496736e-08 -1.754030835428452e-07
43 1 1 6.786050037004823e-08 1.825956609985203e-07 -4.531861730062085e-08
44 1 1 -8.39585381199171e-08 1.7896062460069326e-07 -3.0398334153307986e-08
45 1 1 -1.3820940442852786e-07 -1.3768233075350397e-07 4.406513730597404e-08
46 1 1 -1.7720468488354504e-07 8.691574973301352e-08 3.2313342502311134e-08
47 1 1 -1.9157588553683805e-07 -5.677018080641438e-08 8.707850020719387e-09
48 1 1 -1.7860389403272418e-07 3.935889828394433e-08 -8.094149839372605e-08
49 1 1 -1.0882489237227592e-07 -1.0428875243364561e-07 1.314572132520553e-07
50 1 1 4.505200573087382e-08 1.9466871413019392e-07 -8.626037243261461e-09
51 1 1 2.838326440661485e-08 -7.652484818754938e-08 -1.8258789092241768e-07
52 1 1 -1.7080051877580274e-07 2.024029700022042e-08 1.0206621950116266e-07
53 1 1 1.2684371838753012e-07 -1.5459314115470336e-07 3.410544464878645e-09
54 1 1 9.029087316783864e-08 2.073996734128162e-08 1.7724957539377023e-07
55 1 1 1.2003874946596693e-07 1.310868027504832e-07 9.168941471785463e-08
56 1 1 6.176902714207017e-08 -1.8509122556092753e-07 -4.388422844571886e-08
57 1 1 -1.244899196237041e-08 5.6821594017476136e-08 1.9135393660030605e-07
58 1 1 9.57394255104148e-08 -1.5116337111255325e-07 -8.935098005519715e-08
59 1 1 -3.905347667021656e-09 1.9263433053396402e-07 -5.363546363490461e-08
60 1 1 -9.258682304688052e-08 -6.200944465460155e-08 -1.6607982710646566e-07
61 1 1 -1.2050803936587413e-07 -8.568000937988267e-08 -1.3467274572405565e-07
62 1 1 6.23675855362228e-08 -9.136026062565703e-08 -1.666240890531557e-07
63 1 1 -9.148426718247676e-08 7.790161090363716e-08 -1.5988110543995975e-07
64 1 1 -4.6835495259305516e-08 1.9415646790772554e-07 -1.047388912543499e-08
65 1 1 -1.297984800751872e-07 -1.5162702010719216e-07 -1.2712251711808444e-08
66 1 1 -1.4971877424950363e-07 1.323069504528318e-07 8.897162418326176e-09
67 1 1 -1.2005517917663455e-07 5.1112919695962086e-08 -1.5157250210054694e-07
68 1 1 -7.136372495874608e-08 -4.245848019134784e-08 1.8194641029669524e-07
69 1 1 -5.632735322108733e-08 -2.6833205898036026e-09 1.918854582028539e-07
70 1 1 1.503246432452972e-07 1.249426994527311e-07 4.232993605757798e-08
71 1 1 1.1007102812695362e-07 -1.0209482021242251e-07 1.3214013944622772e-07
72 1 1 2.4523493558364634e-08 -1.8888175021219653e-07 6.101051303234754e-08
73 1 1 -1.894621849143422e-07 -6.547394927459074e-09 6.372764005631684e-08
74 1 1 1.0435519851226487e-07 -1.5736453980238592e-07 6.592718829321541e-08
75 1 1 1.7537525851404873e-07 9.223717896305103e-08 2.7126030267414397e-08
76 1 1 7.82782299542017e-08 -1.3626729973876217e-08 -1.8353972579650483e-07
77 1 1 1.1999638210224772e-07 1.5789790326558196e-07 2.5867362190688953e-08
78 1 1 1.7595197162147137e-07 9.04497790243294e-08 2.9321343028021443e-08
79 1 1 -1.1728797449150369e-07 -7.464795866382421e-08 -1.437748702207878e-07
80 1 1 1.6541981131922108e-07 2.097337491774898e-08 -1.1043732868768987e-07

Bonds

1 1 1 2
2 1 2 3
3 1 3 4
4 1 4 5
5 1 5 6
6 1 6 7
7 1 7 8
8 1 8 9
9 1 9 10
10 1 10 11
11 1 11 12
12 1 12 13
13 1 13 14
14 1 14 15
15 1 15 16
16 1 16 17
17 1 17 18
18 1 18 19
19 1 19 20
20 1 20 21
21 1 21 22
22 1 22 23
23 1 23 24
24 1 24 25
25 1 25 26
26 1 26 27
27 1 27 28
28 1 28 29
29 1 29 30
30 1 30 31
31 1 31 32
32 1 32 33
33 1 33 34
34 1 34 35
35 1 35 36
36 1 36 37
37 1 37 38
38 1 38 39
39 1 39 40
40 1 40 41
41 1 41 42
42 1 42 43
43 1 43 44
44 1 44 45
45 1 45 46
46 1 46 47
47 1 47 48
48 1 48 49
49 1 49 50
50 1 50 51
51 1 51 52
52 1 52 53
53 1 53 54
54 1 54 55
55 1 55 56
56 1 56 57
57 1 57 58
58 1 58 59
59 1 59 60
60 1 60 61
61 1 61 62
62 1 62 63
63 1 63 64
64 1 64 65
65 1 65 66
66 1 66 67
67 1 67 68
68 1 68 69
69 1 69 70
70 1 70 71
71 1 71 72
72 1 72 73
73 1 73 74
74 1 74 75
75 1 75 76
76 1 76 77
77 1 77 78
78 1 78 79

Angles

1 1 1 2 3
2 1 2 3 4
3 1 3 4 5
4 1 4 5 6
5 1 5 6 7
6 1 6 7 8
7 1 7 8 9
8 1 8 9 10
9 1 9 10 11
10 1 10 11 12
11 1 11 12 13
12 1 12 13 14
13 1 13 14 15
14 1 14 15 16
15 1 15 16 17
16 1 16 17 18
17 1 17 18 19
18 1 18 19 20
19 1 19 20 21
20 1 20 21 22
21 1 21 22 23
22 1 22 23 24
23 1 23 24 25
24 1 24 25 26
25 1 25 26 27
26 1 26 27 28
27 1 27 28 29
28 1 28 29 30
29 1 29 30 31
30 1 30 31 32
31 1 31 32 33
32 1 32 33 34
33 1 33 34 35
34 1 34 35 36
35 1 35 36 37
36 1 36 37 38
37 1 37 38 39
38 1 38 39 40
39 1 39 40 41
40 1 40 41 42
41 1 41 42 43
42 1 42 43 44
43 1 43 44 45
44 1 44 45 46
45 1 45 46 47
46 1 46 47 48
47 1 47 48 49
48 1 48 49 50
49 1 49 50 51
50 1 50 51 52
51 1 51 52 53
52 1 52 53 54
53 1 53 54 55
54 1 54 55 56
55 1 55 56 57
56 1 56 57 58
57 1 57 58 59
58 1 58 59 60
59 1 59 60 61
60 1 60 61 62
61 1 61 62 63
62 1 62 63 64
63 1 63 64 65
64 1 64 65 66
65 1 65 66 67
66 1 66 67 68
67 1 67 68 69
68 1 68 69 70
69 1 69 70 71
70 1 70 71 72
71 1 71 72 73
72 1 72 73 74
73 1 73 74 75
74 1 74 75 76
75 1 75 76 77
76 1 76 77 78
77 1 77 78 79
78 1 78 79 80
