# LAMMPS configuration file

80 atoms
78 bonds
78 angles

1 atom types
1 bond types
1 angle types

-2e-06 2e-06 xlo xhi
-2e-06 2e-06 ylo yhi
-2e-06 2e-06 zlo zhi

Masses

1 1

Atoms

1 1 1 0.0 0.0 0.0
2 1 1 0.9731601483200218 0.19037093260973698 -0.12929900904126138
3 1 1 0.5100413555898801 0.09631163321854197 0.8547408290790927
4 1 1 -0.04736593673340762 0.6474577347796053 0.760627996928478
5 1 1 -0.57584035742581 -0.33209898413951233 0.7470730536521977
6 1 1 -0.8143089892051537 0.5771394519219439 -0.061732674775347746
7 1 1 -0.5620047297791357 0.6037562594647623 -0.5653574646743413
8 1 1 0.1012249132552255 -0.8906702199042431 -0.44323817109111807
9 1 1 0.7940374369744541 0.5966359288846537 0.11631903131898196
10 1 1 -0.869933584602772 -0.02468481563542066 -0.49255072658277227
11 1 1 -0.152068147491891 -0.4531893864949443 -0.8783476865608062
12 1 1 0.45492294699056823 -0.46377398793231134 -0.7602360162599355
13 1 1 -0.9675411105688562 -0.043693534357531434 -0.248907762865146
14 1 1 -0.5516050129608999 0.832497181419701 -0.05177212188677432
15 1 1 0.4094288621813849 -0.9037074928449216 0.1252228980210989
16 1 1 -0.795914113707661 -0.6045313132078024 -0.032597775264554235
17 1 1 0.17070654872210256 -0.6815391851494297 -0.7115923083685206
18 1 1 -0.8274521661394334 0.5609938402294404 0.024674358670179156
19 1 1 -0.17060148223130725 0.7327958591378327 -0.6587149331015097
20 1 1 0.018173380888120736 -0.47908059463272074 0.8775827665089225
21 1 1 0.9785287048285882 0.08928164471754388 0.18576964699061033
22 1 1 0.41931628402780036 0.8416538657581099 0.34028315298225764
23 1 1 -0.33599851570927436 0.5440593583774274 -0.7688331496515395
24 1 1 0.8735193980873492 -0.009851845250012507 -0.4866896365347066
25 1 1 -0.11679697622734236 -0.6123521399695171 -0.7819100479076238
26 1 1 -0.17987850091661392 -0.46980790561447405 0.8642477982211659
27 1 1 -0.6781740568430831 -0.731123736631523 0.07441794379687032
28 1 1 -0.28936813147736645 0.14253866680922875 -0.9465457268138423
29 1 1 0.8167542354562703 0.32548619948934554 -0.47641500060999875
30 1 1 0.8816664926685435 0.3407668440827236 -0.3264079559070977
31 1 1 0.9112023534461426 -0.3694776704289609 -0.18219912768341942
32 1 1 -0.9043319201654819 0.07962099704187633 0.41933790074338595
33 1 1 -0.16949006224569158 0.7267270769808831 -0.6656882711771128
34 1 1 -0.04691820865454428 -0.38009622539096544 -0.923756213045514
35 1 1 -0.024141905839270186 -0.923746453763762 0.3822429300082889
36 1 1 -0.9781820325119822 -0.13956404349402698 -0.15388888535019288
37 1 1 0.8707099080462612 -0.36664180897127446 0.32777742439701796
38 1 1 0.8227819708160983 0.13327834458116655 0.5525094672181473
39 1 1 -0.44504724995933237 -0.8948309595229395 0.034792228771539944
40 1 1 -0.04218745447473986 -0.9865717842468045 -0.15778571929366245
41 1 1 0.7377571821086603 -0.6710084906725833 0.07390497745342275
42 1 1 -0.083054953476623 0.9473536075004342 0.309229715678991
43 1 1 0.2619049797837718 0.8043826185212383 -0.5332676481705768
44 1 1 0.35998378914397766 -0.3209497801295392 0.8760153595618885
45 1 1 0.04548898674843509 0.9891224825408378 -0.13988376109059528
46 1 1 -0.22041795230118041 -0.5112552996666007 0.8306828184488764
47 1 1 0.1917859959490984 -0.35355727684347754 0.9155410333506833
48 1 1 0.5009832982945923 -0.6164360284088813 -0.60747210447012
49 1 1 0.6265895793145463 0.1649081638813598 0.7617025643777883
50 1 1 0.3048214584516283 -0.4217243968922024 -0.8539510592143618
51 1 1 0.1120943291237573 -0.08088870285552167 0.9903998582030622
52 1 1 -0.613643345163638 -0.5769058721561285 0.5390931826763873
53 1 1 0.7627536129840327 -0.5331524318407054 0.36599919440095263
54 1 1 0.2901111880517286 -0.81598689857774 0.5000008799159213
55 1 1 0.35907357567289433 -0.9333014977542052 -0.0038054622898364815
56 1 1 0.2595842890816341 0.3183165926078126 0.9117513606968375
57 1 1 0.3137103716127898 -0.9083437757760016 -0.2765816113763934
58 1 1 -0.19564168694191653 -0.20156425370018624 0.9597375588986856
59 1 1 0.8457299155117249 -0.4866265601893806 -0.21894177519784036
60 1 1 0.3985338747240241 0.5239864299277655 -0.7527343302580338
61 1 1 -0.48683357165536867 -0.7980285073527983 0.35516696772298756
62 1 1 0.2848811227740472 -0.9054249092710912 -0.3147196840975063
63 1 1 0.12360637462260814 0.9847780825275955 -0.12220307821788964
64 1 1 -0.15960666761565412 0.9815283531585999 -0.10548840504241744
65 1 1 0.5789756484867888 0.16602058339182027 -0.798263342731922
66 1 1 0.7309541308976788 -0.5332951452546223 0.42579613264034044
67 1 1 0.7891709890847853 -0.3305325445510056 0.517646005470514
68 1 1 0.9239004699777443 -0.02740100822272608 0.381650502846886
69 1 1 -0.04454068765379539 -0.48736724474320026 0.8720603739964043
70 1 1 0.2274981478053298 0.042934093817404824 -0.9728315662709669
71 1 1 0.8606909546791517 -0.2742410536894394 0.4289556212532907
72 1 1 0.43344575857859957 -0.6693580157623975 -0.6033942501423495
73 1 1 -0.9717866370463384 0.22068834995031267 0.08323090924876811
74 1 1 -0.7402024453693662 0.46459431225027936 0.48605808798321676
75 1 1 -0.2720369682764736 -0.4381744735022533 0.8567374269062651
76 1 1 0.11762217181773202 -0.23724497510321266 -0.9643027773916012
77 1 1 0.48962130800806425 0.8572877896163869 0.15914967960734883
78 1 1 -0.019237001045205957 -0.4955499100423948 0.868366411400027
79 1 1 0.03503540821711416 -0.4646920203114848 -0.8847789816840649
80 1 1 -0.20901824299162378 0.3770857197279899 -0.9022847300458533

Bonds

1 1 1 2
2 1 2 3
3 1 3 4
4 1 4 5
5 1 5 6
6 1 6 7
7 1 7 8
8 1 8 9
9 1 9 10
10 1 10 11
11 1 11 12
12 1 12 13
13 1 13 14
14 1 14 15
15 1 15 16
16 1 16 17
17 1 17 18
18 1 18 19
19 1 19 20
20 1 20 21
21 1 21 22
22 1 22 23
23 1 23 24
24 1 24 25
25 1 25 26
26 1 26 27
27 1 27 28
28 1 28 29
29 1 29 30
30 1 30 31
31 1 31 32
32 1 32 33
33 1 33 34
34 1 34 35
35 1 35 36
36 1 36 37
37 1 37 38
38 1 38 39
39 1 39 40
40 1 40 41
41 1 41 42
42 1 42 43
43 1 43 44
44 1 44 45
45 1 45 46
46 1 46 47
47 1 47 48
48 1 48 49
49 1 49 50
50 1 50 51
51 1 51 52
52 1 52 53
53 1 53 54
54 1 54 55
55 1 55 56
56 1 56 57
57 1 57 58
58 1 58 59
59 1 59 60
60 1 60 61
61 1 61 62
62 1 62 63
63 1 63 64
64 1 64 65
65 1 65 66
66 1 66 67
67 1 67 68
68 1 68 69
69 1 69 70
70 1 70 71
71 1 71 72
72 1 72 73
73 1 73 74
74 1 74 75
75 1 75 76
76 1 76 77
77 1 77 78
78 1 78 79

Angles

1 1 1 2 3
2 1 2 3 4
3 1 3 4 5
4 1 4 5 6
5 1 5 6 7
6 1 6 7 8
7 1 7 8 9
8 1 8 9 10
9 1 9 10 11
10 1 10 11 12
11 1 11 12 13
12 1 12 13 14
13 1 13 14 15
14 1 14 15 16
15 1 15 16 17
16 1 16 17 18
17 1 17 18 19
18 1 18 19 20
19 1 19 20 21
20 1 20 21 22
21 1 21 22 23
22 1 22 23 24
23 1 23 24 25
24 1 24 25 26
25 1 25 26 27
26 1 26 27 28
27 1 27 28 29
28 1 28 29 30
29 1 29 30 31
30 1 30 31 32
31 1 31 32 33
32 1 32 33 34
33 1 33 34 35
34 1 34 35 36
35 1 35 36 37
36 1 36 37 38
37 1 37 38 39
38 1 38 39 40
39 1 39 40 41
40 1 40 41 42
41 1 41 42 43
42 1 42 43 44
43 1 43 44 45
44 1 44 45 46
45 1 45 46 47
46 1 46 47 48
47 1 47 48 49
48 1 48 49 50
49 1 49 50 51
50 1 50 51 52
51 1 51 52 53
52 1 52 53 54
53 1 53 54 55
54 1 54 55 56
55 1 55 56 57
56 1 56 57 58
57 1 57 58 59
58 1 58 59 60
59 1 59 60 61
60 1 60 61 62
61 1 61 62 63
62 1 62 63 64
63 1 63 64 65
64 1 64 65 66
65 1 65 66 67
66 1 66 67 68
67 1 67 68 69
68 1 68 69 70
69 1 69 70 71
70 1 70 71 72
71 1 71 72 73
72 1 72 73 74
73 1 73 74 75
74 1 74 75 76
75 1 75 76 77
76 1 76 77 78
77 1 77 78 79
78 1 78 79 80
