# LAMMPS configuration file

700 atoms
198 bonds
198 angles

4 atom types
1 bond types
1 angle types

-1e-05 1e-05 xlo xhi
-1e-05 1e-05 ylo yhi
-1e-05 1e-05 zlo zhi

Masses

1 1
2 1
3 1
4 1

Atoms

1 1 1 2.0000000000000002e-11 2.0000000000000002e-11 2.0000000000000002e-11
2 1 1 -3.6300438475935175e-08 2.2442751818349937e-07 -6.62944746400043e-08
3 1 1 1.338257017890024e-07 2.021642882656647e-07 -2.772817159485529e-07
4 1 1 1.9420232954662574e-08 -1.9202875565963336e-07 -4.1193763547949637e-07
5 1 1 -1.8897060269241875e-07 -5.616982212401533e-08 1.1225443562370033e-07
6 1 1 -3.111304058578547e-07 -1.4718596976970082e-07 7.616333542323574e-08
7 1 2 -3.248577829676556e-07 -3.522317332800565e-07 -1.4138629657833828e-07
8 1 1 -6.090359886511423e-07 -1.8079160505944116e-07 -1.4354423524452675e-07
9 1 1 -7.332998878918097e-07 -8.635524205762258e-08 -4.4471716888444446e-07
10 1 1 -5.244978091970406e-07 2.1951078222079834e-07 -3.987760208276337e-07
11 1 1 -6.50765525811276e-07 1.0155932713340492e-07 -3.3700216277688874e-07
12 1 2 -6.930157745143662e-07 3.4112190039924526e-07 -2.9146608841712053e-07
13 1 2 -6.727746839522306e-07 2.465907783085355e-07 1.594216337320249e-07
14 1 1 -6.596570579209542e-07 1.383992458753717e-07 4.380927874415219e-07
15 1 1 -7.219612966679492e-07 8.46924254263013e-09 4.4543161756288714e-07
16 1 1 -7.479448315360987e-07 2.080576612046958e-07 2.7220792142508264e-07
17 1 1 -5.609408396352882e-07 4.7503536833204086e-07 1.6526995153446652e-07
18 1 1 -6.376346172413638e-07 2.0016830619343985e-08 6.813374104671996e-07
19 1 1 -5.399445789734944e-07 1.0982552601940074e-07 4.434289641994781e-07
20 1 1 -6.42111175509615e-07 -1.5172145263500227e-07 2.762459610362123e-07
21 1 2 -8.122052822945013e-07 -5.7714847992576235e-08 2.3514347971569437e-07
22 1 1 -4.0088435763104654e-07 5.5625001515745915e-08 1.6393422834738348e-07
23 1 1 -7.8833441056153e-07 3.598027051225282e-07 3.6215891391675724e-08
24 1 1 -8.506604834698556e-07 9.380975887697876e-08 1.641385762692701e-07
25 1 2 -4.1929106286309124e-07 3.624454730690707e-07 1.4547556615637802e-07
26 1 1 -6.103285161006483e-07 2.7239083051129356e-07 -1.1426780810415425e-07
27 1 1 -4.319705282873303e-07 3.2124945625931737e-07 -1.9699762872016266e-07
28 1 2 -1.2543541062465254e-07 -7.00289680415513e-08 -4.1638957717554386e-07
29 1 1 -3.4435693442334896e-07 -1.6786007423719863e-07 -4.2769821202427286e-07
30 1 1 -6.298593674771268e-07 -2.966124355717764e-07 -1.8142174546670692e-07
31 1 1 -6.328216054888346e-07 -4.136765811238405e-07 6.592859209361863e-08
32 1 2 -8.616051813517218e-07 -3.8237334108578697e-07 2.380189411824515e-07
33 1 1 -7.402929629250621e-07 -3.5984361605516896e-07 4.287698348966976e-07
34 1 1 -7.99762978097032e-07 -3.073691882396268e-07 2.322752558935963e-07
35 1 1 -8.182688746859093e-07 -2.8242001845461674e-07 1.3875217202715142e-07
36 1 1 -4.491269697897458e-07 -1.9536885234989653e-07 1.3058061800511617e-07
37 1 2 -2.3541078903111117e-07 -4.6472912193177795e-07 -3.0029260303243386e-07
38 1 1 -1.252879571101861e-07 -7.107625885441676e-07 -5.629623082723366e-07
39 1 1 -1.0819571932508574e-07 -7.135516298947742e-07 -6.672686171339338e-07
40 1 1 -1.3996063057920184e-07 -3.3499206864679075e-07 -8.027276081526746e-07
41 1 1 -3.2617846235804945e-08 -3.363530847997306e-07 -5.210827857945014e-07
42 1 2 2.9026683989836864e-07 -4.1598860418470954e-07 -7.611773846932648e-07
43 1 1 5.174430980629199e-07 -8.934792763043932e-08 -6.267769611499935e-07
44 1 1 3.4010347654215534e-07 2.2364976925496777e-08 -4.745810616770015e-07
45 1 2 3.60027797292444e-07 -1.4785861789606227e-07 -3.695699281943864e-07
46 1 2 3.682738109142108e-07 -2.633692598543704e-08 -3.0480095149120937e-07
47 1 1 1.5760561972701823e-07 9.506781788021143e-08 -4.087996435157278e-07
48 1 1 -3.013598000711694e-08 -1.5156483519694694e-08 -6.852032404452995e-07
49 1 2 -3.8292066228749365e-08 -1.2678039147638609e-08 -8.765296213876643e-07
50 1 1 -5.063961106820878e-08 1.8552752989516872e-07 -6.59899566675045e-07
51 1 1 -1.3878301958165419e-07 3.9526656207482884e-07 -5.253982961928067e-07
52 1 1 5.902547733638297e-08 6.259650192634867e-07 -3.855467093371836e-07
53 1 2 -2.880793609117616e-10 4.96216726273354e-07 -2.587963231698333e-07
54 1 2 2.7004280049331267e-07 3.3779227804872495e-07 -3.527891044917945e-07
55 1 1 1.6045120028076505e-07 2.823323388421522e-07 -3.820803755065564e-07
56 1 1 2.285804505219652e-07 4.179853325977726e-08 -3.518644476742044e-07
57 1 2 5.406243523269475e-08 4.681101779620736e-07 -4.4652605955960285e-08
58 1 1 -2.462344689220819e-07 3.5981382226073314e-07 -3.7150732074000015e-08
59 1 2 -1.079864395609905e-08 1.7423349659307844e-07 6.615112771730515e-08
60 1 1 -1.7425585560336044e-07 2.465939742284701e-07 -9.856853915668804e-08
61 1 1 2.6224691531410606e-07 1.028715364321465e-07 -1.4065470529468803e-07
62 1 2 -3.7866585557932616e-08 4.6895206088012296e-07 1.7924594622471411e-07
63 1 2 -1.0221936528986808e-07 7.002770461221128e-08 6.996923444274873e-07
64 1 1 -9.726699621847696e-09 -3.1691093550908417e-07 4.089112378439455e-07
65 1 1 -7.336313992518211e-08 -2.2332439180923004e-07 4.4656848243090605e-07
66 1 1 -1.6645478527208163e-07 -1.053053954324594e-07 7.641396627036899e-07
67 1 1 -1.2674793149886146e-07 -3.513010346771719e-07 8.029347899946967e-07
68 1 2 1.3592877029365442e-07 -7.095013021574732e-07 6.577992460595242e-07
69 1 1 2.4584480456741445e-07 -6.006368572428838e-07 3.163773819030465e-07
70 1 1 -1.7063841489017648e-07 -6.33560650196881e-07 3.157819276235665e-07
71 1 1 -8.899413051118718e-08 -6.860342752163326e-07 6.62528064270948e-07
72 1 1 -1.2303385227821888e-07 -5.712664975172113e-07 6.931823411039314e-07
73 1 1 9.142262813355352e-08 -6.839782268019233e-07 5.396288990445684e-07
74 1 2 -4.907573367397395e-09 -7.908487644279601e-07 9.149510825270593e-08
75 1 1 1.459450570605126e-07 -6.015083545646705e-07 1.0693675635527067e-07
76 1 2 2.1951055299467378e-07 -6.827708879880613e-08 9.904802874048664e-09
77 1 1 3.8077660412680524e-07 1.4624578796811813e-07 3.369341905314246e-07
78 1 1 2.2594394750951204e-07 -9.898855157793672e-09 6.162090344566434e-07
79 1 1 -1.7349919708939695e-07 -6.610724618081427e-08 4.172051917811395e-07
80 1 1 -6.228365206411395e-08 -1.3218703641122144e-07 3.971816858384138e-07
81 1 1 -3.516576774520895e-08 1.2901438728575535e-07 3.0238622295577896e-07
82 1 2 -3.5962905032487265e-07 1.4429716951414198e-08 2.292482461245068e-07
83 1 1 -4.2565900342336893e-07 3.671328798846577e-08 -1.5086586205260923e-08
84 1 1 -5.67576374971295e-07 -2.1443916360194345e-07 -2.317286291546778e-07
85 1 2 -8.446637940437632e-07 -2.634242694600755e-07 -1.1368282514763146e-07
86 1 1 -6.754944404270438e-07 5.538028899778444e-08 -3.224891461206084e-08
87 1 1 -8.666782650689682e-07 7.84417338819654e-08 1.9323636481962372e-07
88 1 1 -4.1740901290921617e-07 2.947202813128256e-07 -3.1965263879675023e-07
89 1 1 -1.1594627650948425e-07 3.208753519100701e-07 -2.5273972794747945e-07
90 1 1 -1.1330172886404667e-07 4.2191601371427265e-07 -1.9353086102750807e-07
91 1 1 -2.1786902264656545e-07 5.906103533762021e-07 -3.810643413556949e-07
92 1 1 -2.24548644696956e-07 2.83899072875601e-07 -3.5361164949543185e-07
93 1 2 -3.3314927482524975e-08 1.6626087072878113e-07 -2.248422997405425e-07
94 1 1 -2.4322373045255934e-07 1.0799490119339817e-08 -2.717950074349945e-07
95 1 1 -5.663751436036045e-08 -9.801802549435868e-08 9.498423458734915e-08
96 1 1 -1.8864136490249632e-07 7.66553534829397e-08 1.5966871702849567e-07
97 1 2 -3.1250490123518226e-07 4.89836817353733e-08 2.6237104279820426e-07
98 1 2 -3.874169773143441e-07 1.39706419152099e-07 2.3445480218565029e-07
99 1 1 -6.191537364705987e-07 1.0006404907292675e-09 3.1622714414060115e-07
100 1 1 -5.765430457709218e-07 2.1787953557782396e-07 1.5682414663096424e-07
101 1 2 -6.254730108894593e-07 1.0889375926243428e-08 4.5096694650502847e-07
102 1 1 -6.898662484672939e-07 -4.10359890571386e-08 6.145310387960633e-07
103 1 1 -8.346223750335475e-07 -1.2464302616106416e-07 3.596764164851217e-07
104 1 1 -4.876698474561704e-07 -4.7788337025169785e-08 1.3634317812269257e-07
105 1 1 -3.60207607108755e-07 -2.1297489457364046e-07 -1.4654977525048565e-07
106 1 1 -4.315624599983266e-07 -2.872218703838555e-07 -2.389086388328125e-07
107 1 1 -4.6455218228605884e-07 -3.67791437781733e-07 -1.9170684204265763e-07
108 1 1 -2.6684703278036e-07 -5.08267768155627e-07 -2.888841840757499e-07
109 1 2 -2.8417050968127615e-07 -1.1914023419944171e-07 -1.0550327846711416e-07
110 1 2 -3.8079017697067664e-07 -2.658061877792759e-07 3.5257112502800205e-08
111 1 2 -3.4557211037784607e-07 -2.1883739170156936e-07 -1.2246399046030385e-07
112 1 1 -9.555317649386592e-08 -4.5209441133485635e-07 -3.3565460064829554e-07
113 1 1 -3.06437283463074e-07 -4.6809574993289377e-07 -5.942587883161275e-07
114 1 2 -3.3171391059152323e-07 -3.3450369744053676e-07 -3.078202490666875e-07
115 1 2 -1.809706678336622e-08 -3.5222515956568173e-07 -3.7118461159714665e-07
116 1 1 9.806367256820697e-08 -5.693774693742193e-07 -5.189122459487108e-07
117 1 1 6.14505478671257e-07 -4.3009533300873945e-07 -4.4226468395304943e-07
118 1 2 5.35604219144998e-07 -1.1138760874950721e-07 -5.393095604710014e-07
119 1 1 7.428878112470411e-07 -1.2129802979974615e-07 -3.832508399390969e-07
120 1 1 3.389797249531854e-07 5.595588779675527e-08 -3.2574690479622764e-08
121 1 1 -1.831796639416491e-07 -2.5787714703243735e-08 -4.602080672266608e-07
122 1 1 -2.883415329657922e-07 1.679263149882084e-07 -4.276844729859553e-07
123 1 1 -3.9447440550491825e-07 5.424181568174204e-08 -5.696954854235405e-08
124 1 1 -2.120570939645478e-07 3.6254682397001863e-07 1.3727534430510587e-07
125 1 2 1.7616419955010294e-08 3.6276586857191443e-07 4.790215845727349e-07
126 1 2 4.556119227519386e-07 3.336566402074257e-07 1.5635887987968923e-07
127 1 2 2.823196918944293e-07 3.112767196084074e-07 2.8180289943742614e-08
128 1 1 2.5605922333346207e-07 3.7339095628150453e-07 1.912197375488897e-07
129 1 2 1.9532297847979425e-07 2.1552445972115415e-07 4.7516917335182896e-07
130 1 2 2.3300245143835393e-07 5.218588673347769e-07 2.3136745385892043e-07
131 1 1 4.35631955626004e-07 4.0183533232671343e-07 -2.0185414506461266e-08
132 1 1 7.893727665028781e-07 9.778037744149979e-08 -7.824394984174636e-08
133 1 1 2.185348170148624e-07 -7.369652362721389e-08 -8.050196504089965e-08
134 1 2 4.7042779491534716e-07 -1.585246040468672e-07 1.2123484794202325e-08
135 1 2 1.6019029815244624e-07 -8.755716240085306e-08 7.505182404709047e-08
136 1 1 -9.204828328860366e-08 2.6593765054341373e-07 1.6310358421159763e-08
137 1 1 -1.9881010848565382e-07 1.8767142410457634e-07 3.836608960215369e-07
138 1 1 -4.610378551186531e-07 2.9975560529275933e-07 2.0426432949455158e-07
139 1 2 -8.192680396283951e-07 3.5462529431530317e-07 1.3482453456447096e-07
140 1 1 -8.138335465965117e-07 -1.5424491194688327e-08 4.362482995865383e-07
141 1 2 -6.725232932127779e-07 -3.5838415505498526e-08 4.1562478005724454e-07
142 1 2 -8.234255505828821e-07 -4.5388267784208174e-08 2.679251476099876e-07
143 1 1 -6.921129759071617e-07 2.3037617915901075e-07 5.840968380188908e-07
144 1 1 -5.354943481870917e-07 3.6999508359391924e-07 3.8656228524091916e-07
145 1 1 -4.0416973325912504e-07 5.513671200872583e-07 4.5525897006710347e-07
146 1 1 -8.221084850145111e-08 8.120114372435887e-07 2.402414245958937e-07
147 1 1 -1.329781637994974e-07 8.617482587924993e-07 3.887114153992065e-07
148 1 2 -2.906218302327513e-07 7.23541453449676e-07 3.753639812107738e-07
149 1 1 -1.424094598655816e-07 8.270064123477477e-07 2.924817440408787e-07
150 1 2 -2.4404448426172944e-07 6.724718372591266e-07 5.319706320588034e-07
151 1 1 -2.3261570274091761e-07 6.078020781738459e-07 5.60802999856704e-07
152 1 1 2.8977694798455887e-08 6.153218618148232e-07 3.206784558328933e-07
153 1 2 1.9417621664557467e-08 6.70943129893096e-07 3.112949490961159e-07
154 1 1 -6.730085111224743e-08 6.185492551189623e-07 3.29732145529071e-07
155 1 2 -9.63984206560425e-08 5.473179026037221e-07 -1.1800956759238647e-07
156 1 1 1.3898422072562525e-07 3.412242298924998e-07 -2.6543147074921547e-07
157 1 1 2.761408966551384e-07 5.588861681224311e-07 2.337760861379355e-07
158 1 1 5.61974210960092e-08 4.251731906021254e-07 1.0480210494815004e-07
159 1 1 -8.369696185982385e-09 4.327225776809296e-07 8.377474961929892e-08
160 1 1 -7.56631833156216e-08 7.277673402515675e-07 1.3763106154181744e-07
161 1 1 -3.916718185811939e-07 7.407813331927919e-07 7.142916681214838e-08
162 1 1 -3.449023752082546e-07 8.673424417681666e-07 2.3009914569511626e-07
163 1 1 -2.2111452352410955e-07 6.420752300969908e-07 4.466170203353184e-07
164 1 2 1.7797696759691192e-07 3.3199071558928484e-07 5.536477455282842e-07
165 1 1 3.8515391704657606e-07 5.582207059530366e-07 6.854267410843585e-07
166 1 2 1.0459680471334866e-08 3.3839188483025773e-07 5.51579336055628e-07
167 1 1 3.191008580654941e-07 4.3510583011640646e-07 5.332786332817595e-07
168 1 2 3.032939522227494e-11 4.4955004931863756e-07 5.823566970741919e-07
169 1 1 2.3404833009176596e-08 3.377684184939721e-07 9.27849820329352e-07
170 1 1 -9.062041223800407e-08 4.2308179627917735e-07 6.775408884945564e-07
171 1 1 -8.370813033172132e-08 2.504880704280667e-07 8.324139289811431e-07
172 1 1 -6.832875054897105e-08 6.691793138727402e-08 7.570148933155287e-07
173 1 1 -2.831648796839331e-07 3.6498479494268097e-07 7.180074517331966e-07
174 1 1 -1.2597979221446968e-07 1.5700169439030372e-07 5.80007161703051e-07
175 1 1 -2.0690994598073858e-07 9.741702155531143e-08 9.428270686502308e-07
176 1 1 -3.094719416508006e-07 1.5935328573483966e-07 7.399476153635066e-07
177 1 1 -1.4663662137744367e-07 -1.0346451866143337e-07 8.967254966748161e-07
178 1 2 -4.539604750656471e-07 -3.9051216519897156e-08 5.649845679018899e-07
179 1 1 -2.7368459622803164e-07 -3.894316879195816e-07 4.627300510307991e-07
180 1 1 -2.2207062608352637e-07 -1.4104671474997766e-07 5.436405074620475e-07
181 1 1 -3.4988668109204876e-07 2.772157564910412e-07 8.785779775086549e-07
182 1 1 -7.787815428215157e-08 2.8475111175950015e-07 9.34668714446702e-07
183 1 1 1.5218686321491793e-08 3.4939038879241776e-07 8.999031436746196e-07
184 1 1 3.9721518690358755e-07 3.8973614038565666e-07 6.141083395671837e-07
185 1 1 4.019232177704816e-07 9.829168516731983e-07 2.9727795485570637e-07
186 1 1 2.0798282047924206e-07 1.237236458679913e-06 2.2047821537052001e-07
187 1 1 -2.6144584456394126e-07 1.1653462573178748e-06 1.9392135324329705e-07
188 1 2 -5.344031400841101e-07 1.2247340155155751e-06 1.0537160243519961e-07
189 1 1 -1.2225891137321445e-07 1.306544864212444e-06 2.8596066746829115e-07
190 1 1 2.8117174203491823e-07 1.3080159465968241e-06 -5.831553224273924e-08
191 1 1 4.3575096550134967e-07 1.3314670276914747e-06 2.2915124245419097e-07
192 1 1 4.2325062409651805e-07 1.1745860420998225e-06 3.6935520423594557e-07
193 1 2 2.99816929417211e-07 1.1213438026657946e-06 5.136685985402379e-07
194 1 1 8.070424870113816e-08 1.0290244790492115e-06 3.9641691626015016e-07
195 1 1 -3.6843791338055976e-07 7.882097536588862e-07 6.590768489596971e-07
196 1 1 -7.673037492306434e-07 7.705167340098858e-07 7.097245675069829e-07
197 1 1 -9.74152194380749e-07 7.214717422962366e-07 1.2517675495277262e-06
198 1 1 -8.426830361631862e-07 8.738147506744281e-07 1.4323780041745475e-06
199 1 1 -9.180524488590324e-07 7.601815527686713e-07 1.6360507857703565e-06
200 1 1 -9.751592793530793e-07 1.3078213227722785e-06 1.472040654852422e-06
201 2 4 -9.674315459217821e-08 -4.5254792394741725e-07 4.7129516131123777e-07
202 3 4 -6.10396933795273e-07 -6.072760372269973e-07 -9.939318772202267e-07
203 4 4 7.154932888955541e-07 -2.393339680512101e-07 -1.3282576980800179e-07
204 5 4 -1.3109234315069655e-07 9.293673773608812e-07 2.558745340712197e-07
205 6 4 -9.243843405082725e-07 -1.0646512005581212e-08 1.242043303429296e-08
206 7 4 -7.090426883007989e-07 4.835811727840069e-07 4.304931934014404e-07
207 8 4 -5.382477092123308e-07 7.251110764063113e-07 9.438449075179055e-07
208 9 4 8.196101011326533e-07 -8.90927665501249e-07 2.134593451205876e-07
209 10 4 8.243410805722163e-08 -6.046484054272682e-07 7.053010654572324e-07
210 11 4 -9.203363646131041e-07 6.844081809416084e-07 6.338218160861576e-07
211 12 4 9.545649557440447e-07 9.08798811849164e-07 -5.61391033073471e-07
212 13 4 -2.56320958576364e-07 -5.02419019877897e-07 -1.9895945984424274e-07
213 14 4 9.69759860057676e-07 8.946553411433438e-07 -9.207940448006553e-07
214 15 4 6.780632855121996e-07 -5.358661089987919e-07 9.190356750792896e-07
215 16 4 1.1186822086816754e-07 4.170176318863214e-07 4.2241358641277876e-07
216 17 4 3.258579401113698e-07 -6.412713703141435e-07 5.414282213927076e-07
217 18 4 5.5092147795392e-08 8.306253941710983e-07 7.628677100442508e-07
218 19 4 -9.834211823801452e-07 2.3783594424021814e-08 -5.27124038412816e-07
219 20 4 -9.788183348650899e-07 -2.0251506677845386e-07 -7.136422550453804e-07
220 21 4 8.1713759407896e-07 1.1120583177384228e-07 2.525462565906579e-07
221 22 4 -3.9491307165174326e-07 5.899676989036639e-07 2.8889116387589297e-07
222 23 4 -6.079817521619042e-07 -6.529025142384956e-07 9.389436789917933e-08
223 24 4 5.703855926098143e-07 2.591695995166356e-07 9.85969163102445e-07
224 25 4 -7.303947707200544e-07 1.4316678626597996e-07 -7.962438262204176e-07
225 26 4 -2.435080770033866e-07 -2.3097519507952285e-07 -2.7510248594520135e-07
226 27 4 1.5457468199988102e-07 -2.6342174329492394e-07 -2.230160511406707e-07
227 28 4 -9.342381836924224e-07 5.387807598958127e-07 6.045677887575676e-07
228 29 4 -6.076026040983797e-07 2.8324546053983087e-07 1.5430778714760643e-07
229 30 4 -4.7359866961759506e-07 -8.931393211366711e-07 -9.67489806973366e-07
230 31 4 4.183906465383943e-07 1.4630252182020267e-07 -3.412117371201077e-07
231 32 4 7.783103578907746e-07 8.575716285168689e-10 -5.945484442561944e-07
232 33 4 -4.6450728723031485e-07 1.4928523436012474e-07 -7.898880451301782e-07
233 34 4 -8.375613981121774e-07 3.850004127279862e-07 8.091714374521914e-08
234 35 4 2.7910357991558096e-07 3.741460301608262e-07 -5.168858309966126e-07
235 36 4 6.870731046019171e-07 8.493281624626853e-08 2.846139752318329e-07
236 37 4 9.478310602649297e-07 9.132539976995729e-07 -6.922696297396735e-07
237 38 4 -1.9664409025909955e-07 -1.8573947080535215e-08 -6.46480636721332e-07
238 39 4 2.2289284726969488e-08 -3.9538302002183776e-07 -9.277777308500787e-07
239 40 4 6.264734889763506e-07 -7.545364797888376e-07 1.9216433934279102e-07
240 41 4 7.310306234462346e-07 -1.349130785897921e-07 -9.375720158718635e-08
241 42 4 7.461116764352861e-07 7.487634756558948e-07 -8.016115797910045e-07
242 43 4 -5.304223762378479e-07 -9.109965504571158e-07 -7.564881505774879e-07
243 44 4 -3.7779546433043705e-07 8.573413419670645e-07 -8.469535761745188e-07
244 45 4 5.485878093503128e-07 -7.206814875234314e-07 5.510216955251885e-07
245 46 4 -4.55470140088811e-07 -1.9006439990388338e-07 -1.0950401792060213e-07
246 47 4 9.201746442548648e-07 -4.7345065553174816e-07 -6.132527820528568e-07
247 48 4 7.171760131547292e-07 -4.905360896550645e-07 -1.4786708069393884e-07
248 49 4 9.657563784734341e-07 8.346619073417776e-08 7.553274543179521e-08
249 50 4 2.3856454386666077e-07 -4.2380451096586365e-07 -6.321888727413636e-07
250 51 4 -8.788925088463481e-07 -5.48946645428932e-07 -7.54922051489429e-07
251 52 4 -4.821781827393132e-07 8.882186834752076e-07 -7.890033492631625e-07
252 53 4 -9.862639701410026e-07 5.620562608102116e-07 -1.0930493811069225e-07
253 54 4 7.190747086787722e-07 -4.961124052831951e-07 -5.812788259380096e-08
254 55 4 4.036416731468947e-08 -6.398176954759356e-07 -5.512201898639945e-07
255 56 4 -7.90232020311483e-07 -9.244194129930031e-08 -7.504387062133202e-07
256 57 4 -8.559421300575541e-07 2.2614590099524243e-07 -2.7943692527153116e-07
257 58 4 -3.4602936025807923e-07 7.930862846886682e-07 9.971068511239966e-07
258 59 4 -3.6494005747636374e-07 1.6511134133087423e-07 8.000271455013178e-08
259 60 4 -8.396057124719669e-08 -6.117351928050618e-07 -9.516571840782339e-08
260 61 4 9.542028020126082e-07 5.488234982352844e-07 -9.725579478437052e-07
261 62 4 4.3894858754563163e-07 5.127120524349843e-07 -4.346408439127365e-07
262 63 4 9.553703466702474e-08 9.351133996444082e-07 2.5620042684957875e-07
263 64 4 -1.1373792962069528e-07 4.393578514849063e-07 4.792548328819543e-07
264 65 4 6.097383432928558e-07 -4.013535352289386e-07 -3.727373244645278e-07
265 66 4 5.266445584368422e-07 1.8650176230530124e-07 1.257052877543916e-07
266 67 4 3.313825816705938e-07 -6.768334036318169e-07 -9.582372387985147e-07
267 68 4 9.220080946723484e-07 4.6498974412382887e-07 -4.857757380492946e-07
268 69 4 -5.567886224946701e-07 4.2071452042326363e-07 -7.269036710888286e-07
269 70 4 -6.10428502077192e-07 -9.59423462714665e-07 -7.447512568941778e-07
270 71 4 6.075282318932779e-07 5.606009965401745e-07 8.406695200047049e-07
271 72 4 5.349641829603152e-07 -3.156711653765372e-07 -5.413078096011758e-07
272 73 4 4.4671926180935034e-07 -2.2991107093690583e-07 1.3685097330190652e-07
273 74 4 -1.0407740322748665e-07 -5.671724864138254e-07 7.369566517505484e-07
274 75 4 3.56574190356029e-07 -7.053834582953657e-07 3.7094779810415506e-07
275 76 4 5.412916878642561e-07 5.317926090535536e-07 3.623231583918718e-07
276 77 4 3.887528476046129e-07 -6.782364614228384e-07 7.087029312551096e-08
277 78 4 -4.333506345875353e-07 2.094207801462312e-07 -6.262556418310425e-07
278 79 4 -2.2878195024808345e-07 -2.8855900926283e-07 -1.7686151321334557e-07
279 80 4 6.36465321008726e-07 -3.3177890274601205e-07 2.413397564613663e-07
280 81 4 -4.2865607306922453e-07 -2.1685059822751902e-07 -7.314296918338359e-08
281 82 4 -6.638016122383659e-07 -1.0054021016370944e-07 -7.418735914073639e-07
282 83 4 6.233870439829433e-07 6.053200342986712e-07 -4.7815871637832927e-08
283 84 4 1.2057122163363386e-07 -7.756018091038898e-08 3.071357870781643e-07
284 85 4 6.593239908523063e-07 -2.600055986731315e-07 -4.792248617603927e-07
285 86 4 6.759864050957248e-07 -6.103787426463898e-07 -4.0946895489699475e-07
286 87 4 -5.473822852339626e-07 2.1427643934777202e-07 8.841050480804633e-07
287 88 4 -6.122693626280282e-07 3.893283919135043e-07 1.6443247933771187e-07
288 89 4 -3.38440980066937e-07 -1.204987810782834e-07 7.065544736182505e-07
289 90 4 4.030268198789447e-08 -7.886639920850836e-08 -9.904497936438079e-08
290 91 4 3.885777359618343e-07 5.217836467225043e-08 -4.4422986228246477e-07
291 92 4 5.935013662276297e-07 -5.381165656558655e-07 6.195575621984746e-07
292 93 4 -4.847983634988814e-07 -1.6072929892883153e-08 9.441363300605091e-07
293 94 4 7.054985389747474e-07 9.733835782768017e-08 9.999987435162951e-07
294 95 4 -1.1959295659559572e-07 -5.34295422776033e-07 -9.652317611938399e-07
295 96 4 7.057692514148001e-07 8.528247278786791e-08 8.90220015622431e-08
296 97 4 7.941281200524674e-07 -4.6191931904135264e-07 -3.5903220090429586e-07
297 98 4 9.690744254244961e-09 -5.237910292018155e-07 4.6038485574786834e-08
298 99 4 -2.4810754911093365e-07 -8.949435778978127e-07 4.208216386432565e-07
299 100 4 2.0541340934936723e-07 4.3090095844147575e-07 1.2860604251711618e-07
300 101 4 2.0155711812812029e-07 -8.130740894311438e-07 2.5764537995734697e-08
301 102 4 -6.31977687380542e-07 5.765434006205344e-07 1.5150925075694532e-07
302 103 4 3.039413003784082e-08 -9.490863100003092e-07 -5.228135207006074e-07
303 104 4 -3.65335299793246e-07 7.059009895343071e-07 -3.235988981575375e-07
304 105 4 7.348384185741835e-07 3.04433100860912e-07 1.3374990616220032e-07
305 106 4 -9.315077041303811e-07 -8.130470618693591e-07 4.052407655510141e-07
306 107 4 4.833831541577819e-08 -2.6731774956051344e-07 1.7609609711916994e-07
307 108 4 -8.487286637118403e-07 -3.6966046545682645e-07 -5.1330672209745924e-08
308 109 4 5.726746429594611e-08 7.127263248493726e-08 -6.409498325305662e-07
309 110 4 -8.84014248666304e-07 8.288149667555444e-07 -8.52496863880887e-07
310 111 4 -4.1961500728713113e-07 8.278479159203316e-07 1.2584309865358056e-07
311 112 4 -8.159416104791213e-07 9.291081617385685e-07 9.013667382584533e-07
312 113 4 -2.7791247504567674e-07 -1.2947412294139605e-07 1.0459098968663037e-07
313 114 4 4.2610153738862825e-07 6.256371980698224e-07 6.246170716005617e-07
314 115 4 3.777363975008925e-07 9.596121126754044e-07 -7.710824719287739e-07
315 116 4 1.3153411478150098e-07 -6.90904303780336e-07 -9.058280787540338e-07
316 117 4 -4.4280475700337904e-07 -5.0405735941084336e-08 1.126423156219753e-07
317 118 4 -5.993446137673092e-07 -5.645335709004607e-07 3.5220558158575146e-07
318 119 4 2.3395092682513278e-07 -1.8201440288492333e-07 -3.635699692613771e-07
319 120 4 -2.049710103215279e-07 -2.690219648224159e-07 1.6986783563358017e-07
320 121 4 4.810213953163159e-08 1.4736429170992607e-07 -6.632365526265521e-07
321 122 4 5.622776294834582e-07 2.9442718414017297e-07 2.010498488578763e-07
322 123 4 3.379346178294717e-07 -3.5856681445248844e-07 5.6338713816673517e-08
323 124 4 2.0178748443424482e-07 -6.692617753308887e-07 9.925200121459999e-07
324 125 4 8.713188025977203e-07 9.320827062264253e-07 1.2039989855848333e-07
325 126 4 5.393298118146694e-07 4.1719527452605364e-07 -6.32760405457988e-07
326 127 4 -1.5127742221103708e-07 2.734986677994474e-07 7.5903500457644e-07
327 128 4 7.295216471355677e-07 -7.978738413494195e-07 8.933124022965281e-07
328 129 4 -1.642717024675317e-07 6.21848252039656e-07 -7.393393607407001e-07
329 130 4 6.900327486062547e-07 5.908431918453755e-07 -2.668909131042094e-07
330 131 4 -9.694701893476784e-08 4.274030210881581e-07 8.766348487018979e-07
331 132 4 5.18830918809389e-07 -4.792698801540023e-07 -6.514401998879885e-07
332 133 4 8.864003095762482e-07 -7.124417897268966e-07 -1.9684331105874846e-07
333 134 4 2.403454905610902e-07 -6.162978736411828e-07 -7.725022907373433e-07
334 135 4 2.7749813334118635e-07 -9.908340469014092e-07 5.9589517986213604e-08
335 136 4 8.263605341362139e-07 3.1447719060822934e-07 3.1886822602243003e-07
336 137 4 1.992786875883131e-07 -9.580947341930582e-09 6.783478081191764e-07
337 138 4 3.2419052750798053e-07 6.484835555039689e-08 -9.633609246985204e-07
338 139 4 -5.838408145797507e-07 5.894252772191354e-07 -2.3984497036212965e-07
339 140 4 9.79064200499974e-07 4.014407049399869e-07 5.09263514624558e-07
340 141 4 -5.008526184281596e-07 -7.296608331128719e-07 -6.073927158946657e-07
341 142 4 -4.869517772158799e-07 9.79518582252557e-07 -3.9105452145690274e-07
342 143 4 1.5521757851616307e-07 -3.2118641311921453e-07 -5.467268612129945e-07
343 144 4 -8.602646742839587e-07 9.769798172711127e-07 -3.4180993954050655e-07
344 145 4 -8.731777714446857e-07 8.111813996823055e-07 4.1630539653833563e-07
345 146 4 2.6167172695219876e-07 7.506496372981285e-07 9.484938481310299e-07
346 147 4 1.3695426593538751e-08 3.4410079302916846e-07 6.883501156608581e-07
347 148 4 1.0962653000511425e-07 -3.2934885777400204e-07 6.175425402742036e-07
348 149 4 -4.696576290767065e-07 -4.94417951223944e-07 -5.813307001262044e-07
349 150 4 9.220424568862314e-07 -1.8598547880634534e-07 -5.413024048810077e-08
350 151 4 9.072387125930757e-07 5.644691566102055e-07 -8.964165045850565e-07
351 152 4 -2.8345318970062864e-08 -6.153273287625056e-07 -7.465260655619965e-07
352 153 4 3.825410161042495e-07 7.642873381943217e-07 3.0526251344369823e-07
353 154 4 9.88933653400906e-07 -4.3912991393882225e-07 -7.449644460031987e-07
354 155 4 -8.528516244582486e-07 9.191882165005142e-07 -7.586517823802912e-07
355 156 4 -8.943602002845587e-07 -2.354008198861355e-07 -7.609545590751356e-07
356 157 4 -8.154750350507877e-07 -5.266090541308876e-07 -4.3043298901221693e-07
357 158 4 7.533792999897072e-07 -9.789695439906684e-07 -4.4822187794044803e-07
358 159 4 -8.389046663659429e-07 2.3770515109854213e-07 6.293822052597977e-07
359 160 4 -4.7599038396489465e-07 -4.74582798756324e-07 -7.313825993164744e-07
360 161 4 3.964013809421364e-07 -2.6751682848328136e-07 3.29771568249469e-07
361 162 4 -4.8716255710199906e-08 -8.62587376435878e-07 -9.533902624689942e-07
362 163 4 -3.0733294533952254e-08 -5.669209699136063e-07 -7.157433533160047e-07
363 164 4 5.366711988364143e-07 -3.6922715825643525e-07 1.4876728928810152e-07
364 165 4 -9.107231491445993e-07 -5.0887292441696525e-08 8.110391556149573e-07
365 166 4 -8.930432977658755e-07 8.533847926746859e-07 -1.409471756367149e-07
366 167 4 -5.993598796923131e-07 2.651341553750676e-07 -8.138035252791316e-07
367 168 4 -1.7912410758572858e-07 3.472677373531666e-07 9.543825023386878e-08
368 169 4 7.743901426483048e-07 -2.6408695161006366e-07 1.4236303766702825e-07
369 170 4 -6.53722632417048e-07 -2.2924327634854393e-07 -6.138953744969016e-07
370 171 4 8.918575582288411e-07 -7.11224103828244e-07 7.575925409175948e-09
371 172 4 6.947339806755002e-07 8.940613062301639e-08 -6.055579092423382e-07
372 173 4 -5.315920835029213e-07 6.602868624352009e-07 4.936705100431879e-07
373 174 4 6.092057886582436e-07 -9.46576113401494e-07 -7.540382136505396e-07
374 175 4 -2.725091291832395e-07 3.2224970918881473e-07 5.277352205802139e-07
375 176 4 -5.047879432282287e-07 1.7011964978731934e-07 -5.954025765854445e-08
376 177 4 -4.700847006564095e-07 -9.091494213152362e-07 7.514831792417254e-07
377 178 4 3.118615312429115e-07 -3.3192902146151975e-08 -2.4818697525450025e-08
378 179 4 4.1941817346904526e-07 3.523177841535835e-07 -3.438589605894261e-08
379 180 4 -4.666838967547966e-07 1.1178237678410089e-07 5.191903045831134e-07
380 181 4 6.122853202160785e-07 -8.460058266587816e-07 -8.835021381119773e-08
381 182 4 -2.2187700796455418e-07 1.4117127310917609e-08 -6.630264131421656e-07
382 183 4 7.74682246241669e-07 2.1067952570546823e-07 7.120262895883233e-07
383 184 4 -2.267337505382434e-07 4.085534473312227e-07 -1.9832136503960649e-07
384 185 4 3.3539790109345644e-07 6.215751388460429e-07 8.666353406751255e-07
385 186 4 -9.12882803045687e-07 7.918082797166295e-07 8.95307782737048e-07
386 187 4 -3.1578654922010037e-07 -9.525385120239624e-07 -8.834944051870133e-07
387 188 4 6.385788300777502e-07 1.1810258344835162e-07 -4.7661226959492815e-07
388 189 4 -9.182402416279611e-07 4.433147067206042e-07 -1.4663933229661903e-07