# LAMMPS configuration file

1200 atoms
198 bonds
198 angles

4 atom types
1 bond types
1 angle types

-1e-05 1e-05 xlo xhi
-1e-05 1e-05 ylo yhi
-1e-05 1e-05 zlo zhi

Masses

1 1
2 1
3 1
4 1

Atoms

1 1 1 2.0000000000000002e-11 2.0000000000000002e-11 2.0000000000000002e-11
2 1 1 6.540872704634058e-08 9.947882771466812e-08 2.227925178843391e-07
3 1 1 6.125883983378959e-08 6.36644471035775e-08 5.5331908968163125e-08
4 1 2 -3.6530599737949963e-07 3.060122910529168e-08 1.1758152966051276e-07
5 1 1 -2.290596569078913e-07 1.9960928363496869e-07 1.1765179856397788e-07
6 1 1 -1.2672455597733546e-07 4.809433325037724e-07 3.0898121059277684e-07
7 1 2 -1.3633128448209362e-07 6.026181213520428e-07 1.3974588485071155e-07
8 1 2 -1.7665111576057527e-07 7.605830748601044e-07 1.0166963930400989e-07
9 1 1 -1.675395232662047e-07 5.589770433170521e-07 4.3249372758444946e-08
10 1 2 -1.5128879411162006e-07 4.122172024483381e-07 4.779723109427581e-07
11 1 1 -9.961557505324116e-08 4.808181194146735e-07 2.3677202754375652e-07
12 1 1 -7.206749883923541e-08 7.421747520948119e-07 3.8882973557401375e-07
13 1 2 -2.3162240193942027e-07 8.911347028483993e-07 2.2792158976706934e-07
14 1 2 -2.524502349930713e-07 7.004707292738141e-07 -1.43664967533655e-07
15 1 1 -3.1020844057915886e-07 6.033402805775355e-07 -1.2437173138379677e-07
16 1 2 -3.720413841165145e-07 5.452860817601205e-07 -5.868981363735206e-08
17 1 1 -4.929370450091052e-07 5.58930513948076e-07 3.02967659994993e-08
18 1 1 -4.868123988506648e-07 4.778854127303125e-07 2.1897451415262207e-07
19 1 1 -5.256553907592444e-07 6.657687632361703e-07 3.3635260504057483e-07
20 1 1 -7.400148536967343e-07 3.3584646650050375e-07 2.1974985411834614e-07
21 1 1 -7.473381990741689e-07 5.447322718552812e-07 3.751977442529174e-07
22 1 2 -6.256316297350092e-07 5.682284144270309e-07 3.003082143833208e-07
23 1 2 -6.175130216351532e-07 5.415316580422019e-07 1.9463927011283527e-07
24 1 1 -5.389188312794795e-07 1.7712274071931412e-07 2.0687860217625357e-07
25 1 1 -3.927409357889736e-07 2.3905765832659213e-07 4.0271142150033887e-07
26 1 1 -1.017234934921414e-07 2.7720590867320867e-07 3.070772978166378e-07
27 1 1 3.567359929849729e-08 6.265055406932706e-07 3.1059331182952575e-07
28 1 1 -6.691376675464389e-08 6.009587692145455e-07 2.3343306571276475e-07
29 1 2 5.678233661482356e-08 2.861099934587807e-07 2.0640033331529938e-09
30 1 1 1.8757046902321658e-07 1.7255953501356387e-07 -5.636938671840263e-08
31 1 1 6.846639678480566e-08 6.337045598567284e-08 -3.3632159062419375e-07
32 1 1 -1.1725709223917761e-07 2.2596515630991523e-07 -5.879380469422674e-07
33 1 1 2.35713736172021e-07 3.291817712936027e-08 -3.379350901150432e-07
34 1 2 2.0202792918125568e-07 8.944288318553243e-08 -6.664787067785727e-07
35 1 2 3.124743674254262e-07 1.318258936169363e-07 -7.73111167695795e-07
36 1 1 6.2431953937016e-07 2.399719252640887e-07 -7.191434034934755e-07
37 1 1 7.714212715954501e-07 1.969917367119135e-07 -5.207480248367391e-07
38 1 1 4.877138492693596e-07 5.491195549663642e-07 -3.745958887865449e-07
39 1 1 6.215392463664547e-07 6.662839986750657e-07 -3.119133034158019e-07
40 1 1 7.643022132149042e-07 4.941797327494209e-07 -2.8244660212411097e-07
41 1 2 6.786499821562873e-07 6.902481975864866e-07 -5.174257052559921e-08
42 1 2 3.993974975485955e-07 7.879210415780006e-07 1.6338530642262444e-07
43 1 1 5.644798611741006e-08 8.64087095868036e-07 3.4194496802436514e-07
44 1 1 -1.8031508980740275e-07 7.325227823600907e-07 2.445237333795396e-07
45 1 1 3.686927864408346e-07 3.7195370162560257e-07 2.179731754409717e-07
46 1 2 6.405519957016511e-07 4.3227159417967523e-07 3.8936790586339664e-07
47 1 1 7.586585276075617e-07 2.403695163892e-07 1.720019891507535e-07
48 1 1 7.211070681675304e-07 1.917959948570912e-07 -2.1624771881580345e-07
49 1 2 5.381311605638401e-07 1.2877691020930513e-07 1.2620395596783182e-10
50 1 2 4.026999014569398e-07 1.877682393835724e-07 1.1044363665202992e-07
51 1 1 2.3653151856374896e-07 3.8264108955214067e-07 2.179135488161288e-07
52 1 2 -7.985298656163304e-08 4.9223380648479066e-08 1.6378166644319417e-07
53 1 2 -6.881559586168074e-09 1.5227870620516578e-07 1.5459082779224338e-07
54 1 1 -1.1119573273619591e-07 5.8046436346245485e-08 1.448726235703276e-07
55 1 1 1.7397300193909065e-07 2.4806721645072067e-07 2.430741162722674e-07
56 1 2 1.882250502244255e-07 1.699947375677683e-07 -6.977655968040694e-09
57 1 1 5.50185338824452e-07 2.5063792865556224e-07 -2.766568729095947e-07
58 1 1 5.366095723500867e-07 3.5059299654995e-07 -1.1018769497127601e-07
59 1 1 6.349950195064482e-07 1.1920870865348318e-07 -4.058143685684903e-07
60 1 1 5.184706991589797e-07 1.192351420755005e-07 -3.4232390944057773e-07
61 1 1 3.756513180755522e-07 7.552188649383529e-08 -4.8483416509301e-07
62 1 1 4.841938759026236e-07 -4.4228984290025815e-08 -8.589890328521574e-07
63 1 1 4.0763696435669866e-07 4.754173480833839e-08 -6.814063015084008e-07
64 1 1 3.388272369774828e-07 4.6277591856652447e-07 -5.13856328164374e-07
65 1 1 1.0534903922216829e-07 5.264551645618658e-07 -4.3084067303840497e-07
66 1 2 4.94678107320355e-07 4.08946783241844e-07 -2.1827326218464784e-07
67 1 1 4.350232335535341e-07 2.922759618551718e-07 -3.137024511614347e-07
68 1 1 5.839192331736888e-07 2.448309648264691e-07 -3.643463137477597e-07
69 1 2 7.853336433811096e-08 4.3480392686706745e-07 -3.472414173478114e-07
70 1 2 1.0229496701176953e-07 2.57345087909168e-08 -2.9345663667939746e-07
71 1 1 -2.946976972687521e-07 6.272817082677435e-08 -7.358965757936209e-07
72 1 1 -4.364714725300146e-07 -1.5734121159656335e-07 -7.606999591251415e-07
73 1 1 -4.301504923499807e-07 -7.88674942303812e-08 -8.574127363514366e-07
74 1 1 -4.207904926457621e-07 -6.896186370843398e-08 -7.27016167520744e-07
75 1 1 -6.35458105817578e-07 -7.28043547342919e-08 -2.91109574959717e-07
76 1 1 -6.33772582219234e-07 -2.0306725219278373e-07 -3.860279703814919e-07
77 1 1 -2.796349567558231e-07 -9.346596261946747e-09 -3.313063589599207e-07
78 1 1 -4.699958805530688e-07 -1.8644525552687426e-07 -6.181229080928789e-07
79 1 1 -2.2519398482671985e-07 -6.819270489528434e-07 -5.733491420986423e-07
80 1 1 -5.880592621789798e-07 -3.881087010323735e-07 -3.439961870818795e-07
81 1 1 -7.019474328947847e-07 -3.679503398378928e-07 -2.444651664262508e-07
82 1 1 -5.137687084886258e-07 -5.145956960551883e-07 -4.58760798702242e-08
83 1 1 -5.123789237934899e-07 -7.881200401812237e-07 2.3278324962908288e-07
84 1 2 -4.2194670105879916e-07 -6.069694209980194e-07 3.490964198057399e-07
85 1 1 -2.500453052720903e-07 -7.616760744315069e-07 3.6031139616441895e-07
86 1 1 -2.966533632837094e-07 -2.90987893849303e-07 2.435372896495719e-07
87 1 1 -1.8407109102489945e-07 -4.2020152409861543e-07 2.5358756032656e-07
88 1 1 1.2397991172583614e-07 -6.907839181801783e-07 -3.167212426675588e-08
89 1 1 1.8120473292911552e-07 -7.511516697863065e-07 -1.047274768549456e-08
90 1 2 1.6196329563621538e-07 -7.58061163796605e-07 5.69196115879375e-08
91 1 1 2.89132632785836e-08 -8.306942642071002e-07 4.8871357456597616e-08
92 1 2 -1.8074228029212393e-07 -7.826363464314533e-07 -2.1074816805840142e-07
93 1 2 -2.4862642035149465e-07 -8.875225915593966e-07 -1.5001419597786015e-07
94 1 1 -3.900477132875218e-07 -7.372784332392865e-07 -8.642250243953308e-08
95 1 1 -6.729957218770017e-08 -7.138624188826739e-07 -1.5166421097323024e-07
96 1 1 -2.040835668949435e-07 -7.731051170167094e-07 -2.1163516437945095e-07
97 1 1 -2.710687662978851e-07 -8.838893889647718e-07 -2.9661480356588525e-07
98 1 1 -3.531803631885098e-07 -8.33544452333231e-07 -2.10787828001085e-07
99 1 1 -6.70679556906267e-08 -9.730607170012034e-07 -1.4586663805465989e-07
100 1 1 1.0080841967687169e-07 -8.455579751503955e-07 8.614666763265146e-08
101 1 1 3.2714138661277876e-08 -7.267328546177569e-07 -1.0240819326161227e-08
102 1 2 1.7230293776203567e-07 -7.40957807937151e-07 7.340811687433275e-08
103 1 1 6.108421601283947e-08 -4.6918803424313006e-07 9.634368420574864e-08
104 1 1 1.1002944654905085e-07 -5.713942284840109e-07 2.1007789645753208e-07
105 1 1 -2.85806409101625e-07 -2.485505488617336e-07 -7.947848591845281e-08
106 1 1 -2.9969673419950334e-07 -3.048323517334288e-07 -5.664216981171533e-08
107 1 1 -3.6672692055136403e-07 -1.8809731429683774e-07 -2.1303136299767163e-07
108 1 1 -5.004881162850713e-07 -4.118695587069246e-07 -3.0522694287185145e-07
109 1 1 -3.997820095748608e-07 -5.90315392623494e-07 -2.6043208813565917e-07
110 1 1 -2.408267801797406e-07 -5.365062699410577e-07 -3.8328032645419325e-07
111 1 1 -1.0412614504576449e-07 -5.817860682182839e-07 -4.506169152177914e-07
112 1 2 -2.565025494839712e-07 -2.1765423699377008e-07 -4.510359367811873e-07
113 1 1 -3.287732896216239e-07 -3.292602703503829e-07 -3.9194336820406595e-07
114 1 2 -4.098076708468047e-07 -1.6806088586504764e-07 -3.8276658942371346e-07
115 1 2 9.589977302190501e-09 -9.144040805019331e-08 -1.6711697489428302e-07
116 1 1 -2.8865598868766587e-07 -3.6316708250188687e-07 -3.793035595787478e-07
117 1 2 -1.8466401769174497e-07 -3.2254358032288683e-07 -4.1575403437110083e-07
118 1 1 -5.493842347955211e-09 -4.1216828044238585e-07 -2.663099410181244e-07
119 1 2 6.723941657516093e-08 -3.8709002104572255e-07 -3.296681882739662e-07
120 1 1 -2.289088970315684e-08 -5.303513647541039e-07 -4.810033743879968e-07
121 1 1 -2.4993081958003034e-07 -3.240049193290466e-07 -3.539175748663513e-07
122 1 1 -2.2573145924703324e-07 -3.8914782482923086e-07 -5.0892336089303674e-08
123 1 1 -1.5560579598348826e-08 -6.875357272029382e-08 -1.3391092336608057e-07
124 1 1 -1.5546951482552076e-07 -2.896849089338784e-07 -3.2881197829251327e-07
125 1 1 -2.2992120689580885e-07 -5.153010210896849e-07 -1.2360469933889314e-07
126 1 1 -3.5062376228908e-08 -5.527311521770872e-07 -1.6488951555177786e-07
127 1 2 1.169290108688269e-07 -4.708195804449555e-07 -2.1232413375141875e-07
128 1 1 2.9286533897270244e-07 -4.877107968696882e-07 -1.6465451916530443e-07
129 1 2 2.483030066711759e-07 -3.3333076021921153e-07 -4.100835544098534e-07
130 1 1 2.179797868491241e-07 -6.175749961340279e-07 -5.50279424140511e-07
131 1 1 5.667634665989581e-07 -1.9321695857069155e-07 -5.923613178542618e-07
132 1 1 1.9808523588376611e-07 -1.24973141164309e-07 -7.503881390218834e-07
133 1 2 5.7988546634598406e-08 -4.756832634060679e-07 -7.245131934119301e-07
134 1 2 1.6659337750056135e-07 -7.494967514234966e-07 -5.021417511156204e-07
135 1 1 3.6458053031281807e-07 -3.929840817677324e-07 -4.392787168956498e-07
136 1 1 3.687055291823101e-07 -3.860148641447702e-07 -4.263707657231455e-07
137 1 1 8.035808833421561e-07 -2.1116250730456354e-07 -5.481798302095016e-07
138 1 1 6.845346301039465e-07 -3.4322960018032163e-07 -5.528378093875548e-07
139 1 1 6.48762657177748e-07 -2.2859260453624796e-07 -2.9327166848512446e-07
140 1 1 4.6573028316432926e-07 -3.823342878203615e-07 -1.4475064130296036e-07
141 1 1 6.654817436397373e-07 -1.7485085176839994e-07 -1.4712124580465803e-07
142 1 1 8.17326015894675e-07 -1.2223127869421633e-07 -7.277713841265218e-08
143 1 2 6.986542753187789e-07 -2.334768254930214e-07 -1.1534133035528103e-07
144 1 1 8.312826804432992e-07 -9.230832300038655e-08 -1.076443475132939e-07
145 1 1 5.654771171462601e-07 -7.882761804947448e-08 1.1866401827737577e-07
146 1 1 2.0365051455823398e-07 -9.908158084888766e-08 3.8376475000385386e-07
147 1 1 -8.691096889566559e-08 -4.74065177972919e-08 4.5210828245847856e-07
148 1 1 -2.192678045719454e-07 -2.992979425780477e-08 3.043631712534671e-07
149 1 2 1.0844280987324016e-07 2.604952931956918e-07 1.1109022195724828e-07
150 1 1 4.323958953309779e-07 4.0111269103376886e-07 -9.290773153705766e-09
151 1 1 5.266031267704032e-07 5.400681776751509e-07 4.384519609593632e-08
152 1 2 5.501578173685904e-07 3.573333455034837e-07 9.391029357966411e-08
153 1 1 5.177694509355428e-07 6.887727412258949e-07 4.092152225452249e-08
154 1 2 4.989720381359971e-07 5.820408090052467e-07 -4.1007832016889135e-07
155 1 1 3.028983610873445e-07 3.208705408663926e-07 -1.106399153503649e-07
156 1 2 3.1774867430716745e-07 2.040691731674429e-07 -1.5569877383203072e-07
157 1 2 9.586129098791717e-08 -1.4809039965027883e-07 1.3328784465493986e-07
158 1 1 -4.552427070543215e-08 2.6769957617196404e-07 4.77451586737467e-08
159 1 2 7.113089920897282e-08 3.862995661660965e-07 9.356775370899846e-08
160 1 2 4.0224915620365764e-07 5.986829799177324e-07 1.0591136957901035e-07
161 1 1 7.456185980293042e-07 4.1387886700213004e-07 1.9481919842383985e-07
162 1 1 3.9957271549519047e-07 4.609403881094106e-07 -2.1202566942441692e-09
163 1 2 1.9841974058273605e-07 2.0014749174024574e-07 -2.505954359045543e-08
164 1 1 -3.44866625076699e-08 2.897496149571571e-07 8.707226015138186e-08
165 1 1 -5.591285504409014e-08 1.7532992061389194e-07 -1.614230721719329e-07
166 1 1 2.4669008304687108e-08 7.618869810578724e-09 -2.2175054291033187e-07
167 1 1 -1.8131982615020214e-07 1.3320170830707941e-08 -5.831685056563388e-09
168 1 1 -6.793314856895468e-08 -3.822521072866954e-08 -4.4838566344530327e-07
169 1 2 -3.1490284606653586e-07 -1.0653810404119936e-07 -3.947749479506335e-07
170 1 2 -2.556784187721053e-07 -2.846767979075505e-07 -4.807396748550603e-07
171 1 1 -3.292641219140892e-07 -3.5814310242260536e-07 -4.0935115038769893e-07
172 1 2 -2.4613386848869174e-07 -3.7233483764164283e-07 -4.591113140466443e-07
173 1 1 -8.35902783119901e-08 -4.6392160859857997e-07 -5.301540865731586e-07
174 1 1 -2.091266324556379e-07 -2.5079561476092863e-07 -6.469438793314903e-07
175 1 1 4.056777560361248e-09 -1.562476035482708e-07 -3.291290264801998e-07
176 1 2 -1.9229309449733895e-07 -5.280694531125197e-07 -6.376320839916358e-07
177 1 1 3.669901529185763e-08 -4.26908430838809e-07 -4.26362625359188e-07
178 1 1 1.858536247347371e-07 -4.167496884178519e-07 -5.034284751125277e-07
179 1 1 2.9358290956170103e-07 -5.758222202212294e-07 -7.41040813331311e-07
180 1 1 1.841569723984324e-07 -7.993172642274117e-07 -5.694688544326541e-07
181 1 2 -1.0136071543237264e-07 -6.948370080155878e-07 -5.607817380140082e-07
182 1 1 2.589159264423707e-07 -7.260463518831335e-07 -3.560875211247676e-07
183 1 1 8.716753923068549e-08 -5.03980273540351e-07 -5.439400873198134e-07
184 1 2 -1.7382909412889969e-07 -4.511206262763062e-07 -6.210834401428186e-07
185 1 1 -1.187364995873696e-07 -1.1271090813887275e-07 -4.5024740709571214e-07
186 1 1 -2.6733204063710127e-07 -3.797103588423143e-07 -4.034321547653329e-07
187 1 1 -5.6052927939186193e-08 -7.475874269599495e-07 -2.0939284863275016e-07
188 1 1 -9.22794060936047e-08 -7.887061264653788e-07 -4.30628471929344e-07
189 1 2 6.2931816785080995e-09 -7.94029486240043e-07 -2.7672254566716346e-07
190 1 1 3.108222777060241e-08 -5.371109264404468e-07 -2.8990944937273996e-07
191 1 1 3.631770054941871e-09 -8.027117440603416e-07 -5.404317341375068e-07
192 1 2 -2.418130755739036e-07 -7.451852425554787e-07 -3.3428477740545473e-07
193 1 1 -1.5536635900717833e-07 -7.955449506270445e-07 2.1693344152504037e-07
194 1 2 1.402019535855988e-07 -3.649072718823125e-07 9.486001555669785e-08
195 1 1 4.526915235193033e-07 1.0368895151480962e-08 1.112865030554731e-07
196 1 1 5.424591650354114e-07 -4.4951917875789724e-07 3.206020180406027e-07
197 1 1 2.3510341671486413e-07 -4.733278325874297e-07 4.86089700394997e-07
198 1 2 5.6247410247262654e-08 -3.7770728503113985e-07 5.27561774710573e-07
199 1 1 -2.948075098665919e-08 -7.629372371752362e-07 4.883346268046345e-07
200 1 1 -2.4984951633549537e-07 -6.551701230774594e-07 5.510787257750661e-07
201 2 3 -5.580769911222396e-07 -4.343827761708819e-08 -3.987254787703107e-07
202 3 3 -4.5780324643463103e-07 5.043724956980007e-07 6.807167259043926e-07
203 4 3 7.108784604563001e-07 1.6567048509261854e-07 -7.921913148134348e-08
204 5 3 3.278318312094806e-07 8.08468507363394e-07 5.754319077891351e-07
205 6 3 9.97330406759293e-07 9.413853226018924e-07 -8.481819588040975e-07
206 7 3 5.674987589189774e-09 -4.3905644098004986e-07 -1.5629164485623147e-07
207 8 3 -5.390879308544342e-07 -7.428542171323879e-07 -9.413980873570832e-08
208 9 3 3.202682001517381e-07 -6.773517063663579e-08 -7.439132594137172e-07
209 10 3 -3.155261033134917e-07 8.845756205172591e-07 -3.870147925790685e-07
210 11 3 -4.817916431814593e-07 4.602173027293112e-07 7.435357995662209e-07
211 12 3 6.902305170497865e-07 -3.9089909200195837e-07 -4.560126541643386e-07
212 13 3 -6.808186764632054e-07 2.6729349024970305e-07 8.276203627790021e-07
213 14 3 -5.779998730062692e-07 4.458550769985948e-07 -7.82827569230139e-07
214 15 3 -6.49719291109555e-07 1.9211462192126652e-07 2.8602528127657617e-07
215 16 3 5.458108216473893e-07 -8.6618043161294e-07 6.912085902498492e-07
216 17 3 -8.406882369507965e-07 -9.432885551926453e-07 -8.584287967896857e-07
217 18 3 8.474603792559817e-07 4.378629091492776e-07 -4.155121475858134e-07
218 19 3 -7.592560991073445e-07 -8.219201464128705e-07 4.188528927103897e-08
219 20 3 -2.9300121054335505e-07 -4.3709976405541036e-07 8.128845889648392e-07
220 21 3 5.6222920281353e-07 1.1950658828280021e-07 -1.9417596503018903e-07
221 22 3 -2.1132831457226128e-07 6.631806303148041e-07 7.616040637577358e-07
222 23 3 -5.584120888668789e-07 -7.215239715782677e-07 -9.245572985023675e-07
223 24 3 -5.358410980061105e-07 -4.941336138387305e-07 5.826518610811192e-07
224 25 3 2.837061880020313e-07 -7.692501972918133e-07 2.427259433603331e-07
225 26 3 5.450824058787479e-07 6.745415015397418e-08 -4.0347046551327416e-07
226 27 3 -1.2907256813484593e-07 3.361231877957375e-08 8.047361399626765e-07
227 28 3 -5.327146566958319e-07 -7.453525794163806e-07 9.452236044359392e-07
228 29 3 5.007509278850996e-07 -4.798503076563088e-07 9.588523940847697e-07
229 30 3 7.213230804553036e-07 -9.213659669324323e-07 7.785167081110042e-07
230 31 3 7.288174677286146e-07 -6.683664148169952e-07 -5.316370234679102e-07
231 32 3 1.661337929354805e-07 -9.973651874528765e-07 5.179213042277152e-07
232 33 3 -7.730147946988954e-07 1.960841253577609e-08 7.897364431890757e-07
233 34 3 -8.095416256592016e-07 -5.25824607168182e-07 3.313347623749813e-08
234 35 3 4.0477441164520655e-07 6.420371755924462e-07 -9.559952011828735e-07
235 36 3 3.4931045243743703e-07 -4.1999277787973917e-07 6.375913211739863e-07
236 37 3 6.58316653146894e-07 5.801800255396356e-07 1.4528373377336827e-07
237 38 3 6.140661945277771e-07 9.024295744748015e-07 5.827539304098133e-07
238 39 3 -4.7176967548672576e-07 3.552617668608178e-07 -5.791189607616544e-07
239 40 3 3.7151735653833054e-07 4.6239134160282196e-07 7.994216406876155e-07
240 41 3 5.717354505851473e-07 1.9324854782690737e-07 -2.5249341519511463e-07
241 42 3 -8.611793025832878e-07 7.950136713064863e-07 -5.997033618432325e-07
242 43 3 6.877305323202589e-07 -6.901389134210476e-07 3.530832452786524e-08
243 44 3 3.501973506758158e-08 -6.44958814522224e-07 -7.498256263351515e-07
244 45 3 4.5605229034230815e-07 -8.250265115853656e-07 -9.421864734827112e-08
245 46 3 7.616329306603804e-07 -1.7631927278582268e-07 -8.846002254793217e-07
246 47 3 2.1029073532816733e-07 4.4189515393400507e-07 1.6522443083470186e-07
247 48 3 1.0820619875662056e-07 9.107544699983911e-08 3.603931312670419e-07
248 49 3 -8.584855195008973e-07 -9.86637012335583e-07 5.448158441631963e-08
249 50 3 -4.682057764586906e-07 -2.2527490096022386e-08 -7.693679294508951e-08
250 51 3 -1.5440111170373674e-07 -8.32163583528369e-07 8.063785077529503e-07
251 52 3 9.057139589225005e-07 3.325654649455531e-08 2.4697738877072656e-07
252 53 3 -5.473249564623082e-07 9.456029110015778e-07 -4.772172639706688e-07
253 54 3 3.1703235758507345e-07 -7.929282905448609e-08 -3.4772761611038574e-07
254 55 3 8.803821802800179e-07 4.0272982650970013e-07 -3.6497160132227476e-07
255 56 3 -1.670863807297858e-07 1.734996336186997e-07 7.008356560871236e-07
256 57 3 2.6590857263416217e-07 -2.1881341408797272e-07 -5.31348896597475e-07
257 58 3 1.963842940481114e-07 7.595078735682443e-07 3.997568472058504e-07
258 59 3 7.050087621121224e-07 -2.46427177629369e-07 -3.411556057016999e-09
259 60 3 5.09120045699237e-07 -8.880173191130432e-07 -6.802200740807436e-07
260 61 3 8.522640899025726e-07 1.782320913772402e-07 5.403705108350736e-08
261 62 3 -9.539925556380118e-07 -5.83270023220519e-07 5.650605976545007e-07
262 63 3 -4.6635380157265686e-07 -3.9952084789888256e-07 -8.623949292468006e-07
263 64 3 -2.569562657677065e-07 -3.906544982330709e-07 2.625509626365711e-07
264 65 3 8.305340798510394e-08 -2.826259972465894e-07 6.438772427189786e-07
265 66 3 -9.348463228770154e-07 8.367818886008601e-07 -7.164631703129827e-07
266 67 3 -5.059271927861204e-07 -3.5503663211159447e-07 9.408433611295078e-07
267 68 3 8.652863241608564e-07 -6.566151013626735e-07 3.1699009021646577e-07
268 69 3 -8.977389221963545e-07 7.769467871690827e-07 -5.451043035694747e-07
269 70 3 -6.024957721153108e-07 5.838406719359105e-07 9.60621583651198e-07
270 71 3 5.783355311573544e-07 -9.86061013835623e-07 4.5469292617565624e-07
271 72 3 3.094284920463941e-07 5.533603755771064e-07 -8.087444634669789e-07
272 73 3 2.626552710466752e-07 -9.368546912186727e-07 8.770307719540326e-07
273 74 3 -2.6220436842675804e-07 -8.327480389310677e-07 5.920588126065951e-07
274 75 3 -7.951879019370957e-08 -4.6585223433020585e-07 9.574960533823735e-07
275 76 3 6.926918785072553e-07 1.8737831704982386e-08 -5.850377169966072e-07
276 77 3 -3.728135299719359e-07 9.283448022221581e-07 -2.8621819980147386e-07
277 78 3 8.12805377267727e-07 9.7772003808987e-07 -5.345813076491044e-07
278 79 3 -6.58210160978081e-07 -9.168839393844703e-07 2.1229693024990304e-07
279 80 3 -2.275119187996717e-08 6.128802670563433e-07 -1.451722089256504e-07
280 81 3 9.983824297934894e-07 -1.4466735689648255e-08 6.14001532452189e-07
281 82 3 -6.933333143419275e-07 -5.494017540662595e-07 -3.4449044350765586e-07
282 83 3 5.095624964841404e-07 7.697347597242551e-07 -2.8102288863958225e-07
283 84 3 3.374743879311735e-07 -1.837463921478804e-07 4.954331284278516e-07
284 85 3 9.786685582101018e-07 -8.658891916372093e-07 7.640725393569715e-08
285 86 3 -5.003736005735201e-07 3.5738675717648555e-07 -6.944879251078808e-07
286 87 3 5.018184355627148e-07 5.073109223606628e-07 1.9742829641212108e-07
287 88 3 2.635071243551479e-07 -4.027959205786023e-07 -7.925436185420365e-07
288 89 3 9.98581591121191e-07 -8.926979194102082e-07 2.4797894061894333e-07
289 90 3 9.713841365615697e-07 9.143251780897933e-07 -1.2839800876685724e-07
290 91 3 7.185395403472291e-07 8.169585998049462e-07 9.192342626002484e-07
291 92 3 -8.928706286379076e-08 9.806314307206201e-07 -1.892089909881023e-07
292 93 3 6.67881223101051e-07 1.9873852760197826e-07 -9.199306200472795e-07
293 94 3 -5.8171648305007876e-09 -2.676408048917403e-07 6.253559580220153e-07
294 95 3 -2.5928701917014174e-07 -1.589874508310889e-08 -5.206991303205892e-07
295 96 3 -9.302734010009648e-07 5.61465769373084e-07 -3.5996811616877556e-07
296 97 3 5.222131202465323e-07 3.7426549286426407e-07 -7.447812006189135e-08
297 98 3 -5.54852084584402e-07 -9.315928155028052e-07 -8.125272765583869e-07
298 99 3 5.252458939508218e-07 7.464480452835395e-08 -5.419088544305959e-07
299 100 3 -9.433654254100465e-07 -9.419591454436617e-07 5.93827589109322e-07
300 101 3 -2.8109816762637903e-07 5.681960190896749e-07 3.650872888173916e-09
301 102 3 2.725071843325457e-07 -8.222501275647642e-07 -7.047982089260131e-07
302 103 3 -5.314061962023631e-07 -6.956043888730703e-08 -5.113505026512571e-07
303 104 3 8.052756678500192e-09 4.7069124066760023e-07 6.087255730774363e-07
304 105 3 2.549878301590891e-07 -2.8511798190368466e-07 3.4090665678944677e-07
305 106 3 7.189263326484201e-07 6.083846731832708e-07 -3.057283593166684e-07
306 107 3 3.9989651733162837e-07 7.558604390546929e-07 -4.6248186776900056e-07
307 108 3 -9.39711277292109e-07 -9.585170940282883e-07 -8.121537123349385e-07
308 109 3 -3.828708881239797e-07 7.256475300360511e-07 -4.5666361482650483e-07
309 110 3 -6.248513350025835e-07 7.138225367701764e-07 4.2351704710699525e-07
310 111 3 -8.581789860826559e-08 -3.9444497109275314e-07 1.2872435350989336e-07
311 112 3 6.921316646076049e-07 -8.657564638094708e-07 2.1586600243362035e-07
312 113 3 -5.622127248188203e-07 -1.011008405512186e-07 3.8442003022366847e-07
313 114 3 -2.939396473916675e-07 2.4451769056444577e-08 -3.0990949155682e-08
314 115 3 -9.046223821219947e-07 -3.6822827204115827e-07 -9.419283214987863e-07
315 116 3 -7.952386769091149e-07 -1.553442140728152e-07 8.762573536650828e-07
316 117 3 -3.6543924380402747e-07 7.480367865312524e-07 -7.003931128827617e-08
317 118 3 8.378485844164453e-10 -2.417205654792611e-07 2.1400991874810433e-07
318 119 3 9.509871531128434e-07 4.516195665129497e-07 8.627303336510846e-07
319 120 3 6.893496760151156e-07 8.419942468185337e-07 7.620463882707473e-07
320 121 3 -1.2718044049443474e-07 8.390424448396781e-07 -4.666905445464556e-08
321 122 3 4.701779174258814e-07 -2.9882213737008854e-07 4.841433935769102e-07
322 123 3 3.3418959918509214e-08 -1.6192150411585522e-07 2.9304973447716265e-07
323 124 3 -7.668506301604487e-07 1.8511531677823906e-07 3.3626719564009366e-07
324 125 3 -5.37261191482351e-07 4.324345383395736e-07 6.985698208530233e-07
325 126 3 5.544774394254424e-07 8.333834440883214e-07 -1.205883694574214e-07
326 127 3 7.095499189034703e-07 -9.875106932453082e-07 3.251970405219878e-07
327 128 3 -5.821872000282884e-08 -1.334810631723462e-07 5.185336307740651e-07
328 129 3 -2.705123656661041e-07 4.292490535912847e-07 -9.729306571036476e-07
329 130 3 -6.580486172718977e-07 5.788705721202004e-07 -8.066769976175622e-07
330 131 3 5.266270436006202e-09 5.389734464374507e-07 -8.206723348628395e-07
331 132 3 9.803854010174913e-07 3.678486537958085e-07 2.253735576231112e-07
332 133 3 -6.522884910130993e-07 8.336953402855695e-07 6.850283945631319e-07
333 134 3 7.549429498697254e-08 9.62399326542207e-07 -4.1104259383777084e-07
334 135 3 -3.1690854734471665e-07 -8.788222691245502e-07 -7.568509912126338e-07
335 136 3 -8.960176617834322e-08 -7.742347815748391e-07 -9.2215584647865e-07
336 137 3 2.783941808758827e-07 5.529704767374562e-07 7.38783306357722e-07
337 138 3 8.679395912815787e-07 9.96348773659616e-07 7.720720724483512e-07
338 139 3 -3.411566082742308e-07 8.800826792047088e-07 7.973877251432068e-07
339 140 3 6.845344797912173e-07 -7.970998249634811e-07 -3.449432785006596e-07
340 141 3 6.367379863777245e-07 -3.807523073713996e-07 4.250592403360827e-08
341 142 3 9.289184966482194e-08 4.945993379338497e-07 8.55710577122307e-07
342 143 3 3.72422450527535e-08 1.463896360973608e-07 -2.5768148227874345e-07
343 144 3 6.865220111478477e-07 3.1191547195380805e-07 -2.5597169918256885e-07
344 145 3 6.524170339025762e-07 1.1793027516220574e-07 4.0393612942669024e-07
345 146 3 1.1335900469147047e-07 6.538338663329574e-08 4.869601601195262e-07
346 147 3 -5.250174714078515e-07 -8.138122026743978e-08 -9.346672134903521e-07
347 148 3 -3.8367702784051907e-07 -3.012724518184652e-08 6.814468804399033e-07
348 149 3 6.710483222972431e-07 6.80374253914695e-07 -9.411174885229916e-07
349 150 3 7.361499662785654e-07 1.8352904991343042e-07 3.899440394038283e-07
350 151 3 -3.421760876309152e-07 -8.836921863393907e-07 7.677138566327585e-07
351 152 3 3.42250518709807e-07 4.2340677106460145e-07 -9.233886585588044e-07
352 153 3 -4.069618673197756e-07 2.64798295835349e-07 -8.993432465766886e-07
353 154 3 3.0914920369590406e-07 -6.616009203784498e-07 -4.3440950339184515e-07
354 155 3 -5.899291314827389e-07 -8.771864071066994e-07 5.687289120114489e-07
355 156 3 -9.859043142321005e-07 -6.576267576168844e-08 2.1030641378139212e-07
356 157 3 -1.2288036589061412e-07 5.461124422909081e-07 7.139544415581414e-07
357 158 3 6.680600580992879e-07 -1.326136533027662e-07 5.670562361617991e-07
358 159 3 -4.2356181883357565e-07 -7.542087472680059e-07 -6.33212130480814e-07
359 160 3 6.721829449029582e-07 5.962958158676754e-08 -4.5525433515552293e-07
360 161 3 2.213158986991956e-07 -6.167620505202768e-07 -9.159246379291705e-07
361 162 3 6.86446273272454e-07 5.658182953182247e-07 5.277614847781809e-09
362 163 3 6.851828811132181e-07 -3.367170568400386e-07 -5.844679656862149e-07
363 164 3 6.687587434170435e-07 -2.990737144372944e-07 -5.070707498566306e-07
364 165 3 3.787401233159683e-07 1.015733179391428e-08 7.003113534465171e-08
365 166 3 2.5999675858607474e-07 -8.243263266503573e-07 -3.191677468173664e-07
366 167 3 -4.25528807352141e-07 2.8492288090719135e-07 -1.3980955001321376e-07
367 168 3 -6.23151052625708e-07 2.943781427884852e-07 5.857940447895647e-08
368 169 3 8.188571270882673e-07 -4.2415198736310746e-07 -9.591708466691962e-07
369 170 3 4.6793422332055194e-07 6.845399557115218e-07 4.6135983199113106e-07
370 171 3 -5.072131530684019e-07 -3.696865247097492e-07 7.363553664698046e-07
371 172 3 4.389157467140029e-08 -1.5221506630318561e-07 8.77479830383759e-07
372 173 3 -7.501967119770434e-07 5.831004849507964e-07 -2.149755555972261e-07
373 174 3 9.795816078811764e-07 5.76992378881316e-08 -7.085154244716783e-07
374 175 3 7.084963784688777e-07 -4.910179513799886e-07 -9.864839305863744e-07
375 176 3 3.9020289649170327e-07 -8.813812949079926e-07 -3.6009370984484114e-07
376 177 3 -4.411522769002332e-07 5.00202501873022e-08 -4.712194104164841e-07
377 178 3 5.281686567161546e-07 7.786813208017504e-07 -1.641697697657329e-07
378 179 3 2.7873769808788955e-07 -9.492194980361887e-07 4.04994315591428e-07
379 180 3 -4.599427695036344e-07 6.760700906158106e-07 3.754304297526756e-07
380 181 3 6.426566478805269e-07 1.4600808947368494e-07 1.6418565618494637e-07
381 182 3 4.584427754599594e-07 -9.241818253608087e-07 -1.4493196561273262e-07
382 183 3 3.4580373179567736e-07 7.714797503356173e-07 3.514895192546172e-07
383 184 3 6.522233094432094e-07 1.2169190407672392e-07 5.796161760675184e-07
384 185 3 4.3323740967225893e-07 -7.034506286710085e-07 4.168402845033618e-07
385 186 3 -7.719350517037037e-07 8.520291833361871e-07 -4.80931991638665e-07
386 187 3 -6.929077568443973e-07 -1.9572774245964373e-07 -3.777574560746855e-07
387 188 3 1.1099461285704087e-07 5.537914534763291e-07 -5.8017339893767164e-08
388 189 3 -6.407293205596193e-07 -3.6512052032331005e-07 -3.2389177312750376e-07
389 190 3 -7.559322454998642e-07 7.788667972334018e-07 5.265099427400419e-07