# LAMMPS configuration file

80 atoms
78 bonds
78 angles

1 atom types
1 bond types
1 angle types

-2e-06 2e-06 xlo xhi
-2e-06 2e-06 ylo yhi
-2e-06 2e-06 zlo zhi

Masses

1 1

Atoms

1 1 1 0.0 0.0 0.0
2 1 1 0.6125454461078286 -0.2953553708006074 0.733180251637888
3 1 1 -0.05876644294303689 -0.8226005455330458 -0.5655747940569469
4 1 1 0.6434740477588495 0.44474080184914677 -0.6230142606966712
5 1 1 0.7338698992293968 -0.5732911173463998 0.36437928834766553
6 1 1 -0.6687610997367696 0.5619572913020133 0.48678803829939243
7 1 1 0.716154795497038 -0.38803796019430997 -0.5801283050626256
8 1 1 -0.11903619014201487 0.6950153772769507 0.7090726414021713
9 1 1 0.45847535798223255 -0.2691210706525443 0.8469794539738801
10 1 1 -0.29713051256171163 0.8012231770235019 0.5193793210219104
11 1 1 0.5511251079628153 -0.2514990505027991 0.795618842769052
12 1 1 0.3872249975750472 0.20722652672085598 -0.8983952180840096
13 1 1 -0.43219035635899367 0.8853493017390227 -0.17137126299502692
14 1 1 -0.3928320170183154 -0.8949771734720584 0.21142106179207198
15 1 1 -0.03585832593388915 0.43699769353036894 -0.8987475709621455
16 1 1 -0.48919403420466395 0.39473637199403083 -0.7777354264295513
17 1 1 0.5091852482508413 0.8286002179097489 -0.23270595575456496
18 1 1 -0.17311499167533134 -0.5017647341412873 -0.8475041895054993
19 1 1 -0.82356884749147 0.5543693326566059 -0.12003747936141121
20 1 1 0.461173972210878 0.8853892652572052 0.05834737631245053
21 1 1 -0.5542713610596225 0.4833447486260316 -0.6776142798707477
22 1 1 0.36849690286482073 0.03558907842299023 -0.9289474958661749
23 1 1 0.09455663011042806 0.9337650199748984 0.3451694238681022
24 1 1 -0.2334711699216771 0.8865730389306855 -0.39934879423457964
25 1 1 -0.8369900583840897 -0.4995436428680877 0.2233915643803021
26 1 1 0.8592864901421691 0.3275669933388143 0.3928442346962991
27 1 1 -0.5172426544104399 0.8517420008513883 0.0836397061455626
28 1 1 -0.026915628762812015 -0.3000652322924988 0.9535388850474591
29 1 1 0.6097703705777759 0.7843501207517057 -0.11390778394045961
30 1 1 -0.5174255525070007 -0.577146745721966 0.6318009429522635
31 1 1 0.7432742152744658 0.6681790688827897 0.03286598264247295
32 1 1 -0.13409868711226994 -0.020749381707670822 -0.9907507281216174
33 1 1 0.2943087610606537 -0.9031304689218023 -0.3126303076607074
34 1 1 0.44949571982823944 0.006348652892028953 -0.8932599243571545
35 1 1 0.18619405783039306 0.9675980503143827 0.17054555361092757
36 1 1 -0.24225461109342544 0.7478500599242581 -0.6180881743531877
37 1 1 0.17102159769076172 0.9317831809143888 0.3202057414981226
38 1 1 -0.9297997914783679 0.06238962428204238 0.362739414109811
39 1 1 -0.5481125099075201 0.3108019107514051 0.7765145515417945
40 1 1 -0.9980400168717208 -0.051382195766852844 -0.035721067745407384
41 1 1 -0.5739401172269223 -0.5887088882134779 -0.569222791862727
42 1 1 -0.968277170556761 0.22079424699692876 0.11700094645622496
43 1 1 -0.3849297108374263 0.9229223944742476 -0.006585703647785055
44 1 1 0.6066649646844118 0.7261917364571622 0.32342415266302105
45 1 1 -0.865907908738122 0.19972737694671186 0.4585983738335303
46 1 1 -0.41025297209328215 0.19228924281806964 -0.8914692064143788
47 1 1 -0.15882753545115233 0.9006870497419686 -0.4043966523224711
48 1 1 -0.27586126058283006 0.7544929527486995 0.5955173793955978
49 1 1 -0.6188546139863317 0.7854581860448135 -0.008625817237766458
50 1 1 0.7756618088894996 -0.04555170452814374 0.6295028200451924
51 1 1 0.18311347270878844 -0.9817711384541189 0.05094004133322856
52 1 1 0.4254969783832134 -0.006535732262780465 0.9049362439368558
53 1 1 -0.12949698254850445 -0.753102479740224 0.6450327018996461
54 1 1 0.25658014149037917 -0.9188857595304318 0.2996924956100144
55 1 1 -0.2996806480410357 0.13078876169559558 0.9450321735284135
56 1 1 -0.4400208889895139 0.633373322429219 -0.6365688114319226
57 1 1 0.9087716686939387 -0.37194004881957987 0.1891947522087297
58 1 1 0.07229828574844986 0.2578898429505615 -0.9634655088692954
59 1 1 0.3063434891850123 0.866833663633325 0.3933866624912184
60 1 1 -0.847143715143335 -0.5046257227952787 -0.16643438883383083
61 1 1 0.4229050188422376 -0.42566247812390406 0.7999767495092989
62 1 1 -0.08542757690494122 -0.9761849125618342 -0.1994119996158572
63 1 1 -0.4897158363155317 -0.6571434496484801 -0.5730103718484288
64 1 1 -0.03593809911189442 0.9147714840042016 -0.402369960465458
65 1 1 -0.9018853320740291 0.427507132436471 -0.06197176377725431
66 1 1 0.19529034796865397 -0.8377719807265411 0.5099017437701209
67 1 1 -0.8693275504830628 -0.09392303501154403 0.4852299181474058
68 1 1 -0.18589190522406548 -0.5223696239916 0.8322104154016828
69 1 1 -0.24250037384531242 -0.8812515390963421 -0.40569606052463963
70 1 1 -0.48424131439548074 -0.6752895747885078 -0.5563221545242409
71 1 1 0.31460416912514194 -0.8467416633614131 -0.42901372040649977
72 1 1 -0.4802377283054829 0.3970878597570804 0.7821080206375143
73 1 1 0.434420675054012 -0.5241059004345445 -0.7325241854132268
74 1 1 -0.4308145327403201 -0.784056540442957 0.4468267894479486
75 1 1 -0.9273454752752023 -0.29669971261265876 0.22803431764139137
76 1 1 -0.374557814445412 -0.9104355351648444 -0.17553797294881732
77 1 1 -0.6222090542731846 -0.779569801137158 0.07160180120249114
78 1 1 -0.5918220976147496 0.6447490216930135 -0.48378228967251324
79 1 1 -0.4753505557566717 -0.30667059539932146 -0.8246180904268648
80 1 1 -0.9656901837050962 -0.2489429508829595 0.07395861208339492

Bonds

1 1 1 2
2 1 2 3
3 1 3 4
4 1 4 5
5 1 5 6
6 1 6 7
7 1 7 8
8 1 8 9
9 1 9 10
10 1 10 11
11 1 11 12
12 1 12 13
13 1 13 14
14 1 14 15
15 1 15 16
16 1 16 17
17 1 17 18
18 1 18 19
19 1 19 20
20 1 20 21
21 1 21 22
22 1 22 23
23 1 23 24
24 1 24 25
25 1 25 26
26 1 26 27
27 1 27 28
28 1 28 29
29 1 29 30
30 1 30 31
31 1 31 32
32 1 32 33
33 1 33 34
34 1 34 35
35 1 35 36
36 1 36 37
37 1 37 38
38 1 38 39
39 1 39 40
40 1 40 41
41 1 41 42
42 1 42 43
43 1 43 44
44 1 44 45
45 1 45 46
46 1 46 47
47 1 47 48
48 1 48 49
49 1 49 50
50 1 50 51
51 1 51 52
52 1 52 53
53 1 53 54
54 1 54 55
55 1 55 56
56 1 56 57
57 1 57 58
58 1 58 59
59 1 59 60
60 1 60 61
61 1 61 62
62 1 62 63
63 1 63 64
64 1 64 65
65 1 65 66
66 1 66 67
67 1 67 68
68 1 68 69
69 1 69 70
70 1 70 71
71 1 71 72
72 1 72 73
73 1 73 74
74 1 74 75
75 1 75 76
76 1 76 77
77 1 77 78
78 1 78 79

Angles

1 1 1 2 3
2 1 2 3 4
3 1 3 4 5
4 1 4 5 6
5 1 5 6 7
6 1 6 7 8
7 1 7 8 9
8 1 8 9 10
9 1 9 10 11
10 1 10 11 12
11 1 11 12 13
12 1 12 13 14
13 1 13 14 15
14 1 14 15 16
15 1 15 16 17
16 1 16 17 18
17 1 17 18 19
18 1 18 19 20
19 1 19 20 21
20 1 20 21 22
21 1 21 22 23
22 1 22 23 24
23 1 23 24 25
24 1 24 25 26
25 1 25 26 27
26 1 26 27 28
27 1 27 28 29
28 1 28 29 30
29 1 29 30 31
30 1 30 31 32
31 1 31 32 33
32 1 32 33 34
33 1 33 34 35
34 1 34 35 36
35 1 35 36 37
36 1 36 37 38
37 1 37 38 39
38 1 38 39 40
39 1 39 40 41
40 1 40 41 42
41 1 41 42 43
42 1 42 43 44
43 1 43 44 45
44 1 44 45 46
45 1 45 46 47
46 1 46 47 48
47 1 47 48 49
48 1 48 49 50
49 1 49 50 51
50 1 50 51 52
51 1 51 52 53
52 1 52 53 54
53 1 53 54 55
54 1 54 55 56
55 1 55 56 57
56 1 56 57 58
57 1 57 58 59
58 1 58 59 60
59 1 59 60 61
60 1 60 61 62
61 1 61 62 63
62 1 62 63 64
63 1 63 64 65
64 1 64 65 66
65 1 65 66 67
66 1 66 67 68
67 1 67 68 69
68 1 68 69 70
69 1 69 70 71
70 1 70 71 72
71 1 71 72 73
72 1 72 73 74
73 1 73 74 75
74 1 74 75 76
75 1 75 76 77
76 1 76 77 78
77 1 77 78 79
78 1 78 79 80
