# LAMMPS configuration file

80 atoms
78 bonds
78 angles

1 atom types
1 bond types
1 angle types

-2e-06 2e-06 xlo xhi
-2e-06 2e-06 ylo yhi
-2e-06 2e-06 zlo zhi

Masses

1 1

Atoms

1 1 1 0.0 0.0 0.0
2 1 1 0.397777332117494 -0.2524390570456282 -0.8820701312998888
3 1 1 -0.983465748981673 0.09256746709372556 -0.1556482721258706
4 1 1 0.1444501336780954 -0.5923322635789791 0.792639040423687
5 1 1 -0.16422946326100735 -0.8183164799162995 0.5508056118944308
6 1 1 -0.5112129053455163 0.13650429361492492 0.8485446029719868
7 1 1 0.8268634355547426 0.4875398460003815 0.2803600497655327
8 1 1 0.9054152672232818 0.40662573220114495 -0.12197830869001296
9 1 1 0.4650323544429814 -0.8615277955108515 0.2037517285409616
10 1 1 -0.40592365257456203 -0.6558128044939939 0.636502595236067
11 1 1 0.5767617433737633 -0.7230963991444501 -0.3801019454367307
12 1 1 -0.5080806919996534 0.6030904974087451 0.6149275260975278
13 1 1 0.6711407332724111 0.5534955537213302 0.4931660857695799
14 1 1 -0.9034520067315993 0.4204274462609785 0.08375699351766597
15 1 1 -0.12474707852130423 -0.7957272803430827 0.5926687622257485
16 1 1 0.9571267067231761 -0.2743413244042234 -0.0929801322938616
17 1 1 -0.03448876253856781 0.9277726131526218 -0.37154879025844467
18 1 1 0.6520101594862786 -0.2346743121647728 -0.7209790004824471
19 1 1 0.6649008196650167 0.4267291074158317 0.6130327633111273
20 1 1 0.6683502114109798 -0.2447223701853807 0.7024378666029815
21 1 1 0.582269117531197 0.4154288988090535 -0.6988429757847883
22 1 1 0.9763681778751746 0.0688060041921629 -0.20486804294428052
23 1 1 -0.4620814564245085 -0.8779889625377902 0.12496443210137734
24 1 1 -0.8956930795262555 0.09781044607963121 -0.43378223099439717
25 1 1 -0.9974101789619765 -0.0196981411354174 -0.0691731027123045
26 1 1 0.26854303821544345 0.7617946821647413 -0.5895366815148484
27 1 1 -0.9250427155495516 -0.2599610162704156 0.27697697454547415
28 1 1 -0.41329678076345333 -0.7127282806885628 0.5667487705476661
29 1 1 0.09577475642463616 -0.9903963028125942 -0.09971138052873392
30 1 1 -0.4251971700875565 -0.1471514154614616 -0.8930586920674485
31 1 1 -0.9203152835678128 -0.014637308733811473 0.3909034766083918
32 1 1 -0.8224568086657014 -0.0643258503918088 0.5651787176201882
33 1 1 0.6967350744921953 -0.7122330493824501 -0.08534822399869461
34 1 1 -0.40680486470797045 -0.39470896765066793 0.8238413881968263
35 1 1 0.13193779408353418 0.35084453367240165 0.9270925151701777
36 1 1 -0.37251209467436897 -0.11034087655873964 -0.9214443175154767
37 1 1 0.3769761393406292 -0.12926225280300954 0.9171587977924681
38 1 1 -0.848625632208211 -0.056257261136894665 0.5259939704298802
39 1 1 -0.004485164696964599 -0.4424095756380289 -0.8968019015821835
40 1 1 0.9967621624619591 0.07834111725417083 0.01810692772192892
41 1 1 0.724171989808378 -0.29324375861243007 -0.624165865144698
42 1 1 0.19126379291325996 -0.06108455354305367 -0.9796360746924744
43 1 1 0.015124744185741744 -0.7713293220499077 0.6362564884221973
44 1 1 -0.31611236819753696 0.3498534181249553 0.881859147766144
45 1 1 -0.18691028712489466 -0.7488683654502248 0.6358150012344771
46 1 1 -0.33845455367200655 -0.9304638056593101 -0.1403054576867076
47 1 1 0.2190646586300613 -0.46613849102474886 -0.8571613515111755
48 1 1 -0.6672818206640101 -0.6703589537872289 -0.32458257021691045
49 1 1 0.8652413356969666 0.1579037360895049 -0.47584014241161393
50 1 1 -0.03859397903757998 0.8762735282618968 0.4802657685589237
51 1 1 0.970281445882738 0.06375424793162664 -0.23342945753776675
52 1 1 -0.9339525863227245 -0.2085458485530141 -0.2902433385151107
53 1 1 0.08914030793613123 0.5000488711540492 -0.8613971975567443
54 1 1 -0.5579083956745539 0.3140756686634653 -0.7681762144127107
55 1 1 0.8466522442704078 0.5115045714399736 0.14677551113142426
56 1 1 -0.11139996946700222 0.14615348772278824 0.9829695848952886
57 1 1 0.6930412147725515 0.1749671183234472 -0.6993428216062383
58 1 1 0.8035360708584971 -0.4985510568949697 -0.32523318787939975
59 1 1 0.36936788795339404 0.813345849875831 -0.449484028457754
60 1 1 0.985211836205314 0.06305522181772134 0.15931627915084937
61 1 1 -0.7233821829538396 -0.6582843414396403 0.2082785231374493
62 1 1 0.9059818748975733 0.2771696703817661 0.31995908516174487
63 1 1 -0.3384685696429924 0.9340249021267448 -0.11417753531650394
64 1 1 0.6430275164241653 -0.6713409026178816 0.36853358814845855
65 1 1 -0.5585798548365505 0.8199835229241536 0.12496226591924683
66 1 1 -0.9647512913388185 0.2529830418698992 -0.07248811203455857
67 1 1 0.752589599478288 -0.6344407554882919 -0.17633440541356538
68 1 1 -0.6364564643781264 -0.0918533302811213 0.7658238274352411
69 1 1 -0.26941204383785883 0.02254629252782462 0.962761037500146
70 1 1 -0.9206786341786534 0.37384632628942494 -0.11220417499732444
71 1 1 -0.10643681903490887 0.9417364987616923 -0.3190667178722955
72 1 1 0.8609429258669756 0.37826990465663207 -0.34013108889172977
73 1 1 -0.5236621719311526 -0.8502205417355178 -0.05387912489369699
74 1 1 -0.27660199657558954 -0.8180142709600734 0.5043252799494166
75 1 1 0.7980352981001274 0.5737139681688226 0.1843690476035069
76 1 1 -0.06648824710886746 0.792085176864217 -0.6067786957271757
77 1 1 -0.882223769145526 0.39819826445379447 0.2512356729062327
78 1 1 0.041916434027604955 0.31668036231285457 -0.947605698950681
79 1 1 -0.8694622980755184 -0.14780424043966128 -0.4713695140049824
80 1 1 0.24551213907058186 -0.8002837685361798 0.5470554628065764

Bonds

1 1 1 2
2 1 2 3
3 1 3 4
4 1 4 5
5 1 5 6
6 1 6 7
7 1 7 8
8 1 8 9
9 1 9 10
10 1 10 11
11 1 11 12
12 1 12 13
13 1 13 14
14 1 14 15
15 1 15 16
16 1 16 17
17 1 17 18
18 1 18 19
19 1 19 20
20 1 20 21
21 1 21 22
22 1 22 23
23 1 23 24
24 1 24 25
25 1 25 26
26 1 26 27
27 1 27 28
28 1 28 29
29 1 29 30
30 1 30 31
31 1 31 32
32 1 32 33
33 1 33 34
34 1 34 35
35 1 35 36
36 1 36 37
37 1 37 38
38 1 38 39
39 1 39 40
40 1 40 41
41 1 41 42
42 1 42 43
43 1 43 44
44 1 44 45
45 1 45 46
46 1 46 47
47 1 47 48
48 1 48 49
49 1 49 50
50 1 50 51
51 1 51 52
52 1 52 53
53 1 53 54
54 1 54 55
55 1 55 56
56 1 56 57
57 1 57 58
58 1 58 59
59 1 59 60
60 1 60 61
61 1 61 62
62 1 62 63
63 1 63 64
64 1 64 65
65 1 65 66
66 1 66 67
67 1 67 68
68 1 68 69
69 1 69 70
70 1 70 71
71 1 71 72
72 1 72 73
73 1 73 74
74 1 74 75
75 1 75 76
76 1 76 77
77 1 77 78
78 1 78 79

Angles

1 1 1 2 3
2 1 2 3 4
3 1 3 4 5
4 1 4 5 6
5 1 5 6 7
6 1 6 7 8
7 1 7 8 9
8 1 8 9 10
9 1 9 10 11
10 1 10 11 12
11 1 11 12 13
12 1 12 13 14
13 1 13 14 15
14 1 14 15 16
15 1 15 16 17
16 1 16 17 18
17 1 17 18 19
18 1 18 19 20
19 1 19 20 21
20 1 20 21 22
21 1 21 22 23
22 1 22 23 24
23 1 23 24 25
24 1 24 25 26
25 1 25 26 27
26 1 26 27 28
27 1 27 28 29
28 1 28 29 30
29 1 29 30 31
30 1 30 31 32
31 1 31 32 33
32 1 32 33 34
33 1 33 34 35
34 1 34 35 36
35 1 35 36 37
36 1 36 37 38
37 1 37 38 39
38 1 38 39 40
39 1 39 40 41
40 1 40 41 42
41 1 41 42 43
42 1 42 43 44
43 1 43 44 45
44 1 44 45 46
45 1 45 46 47
46 1 46 47 48
47 1 47 48 49
48 1 48 49 50
49 1 49 50 51
50 1 50 51 52
51 1 51 52 53
52 1 52 53 54
53 1 53 54 55
54 1 54 55 56
55 1 55 56 57
56 1 56 57 58
57 1 57 58 59
58 1 58 59 60
59 1 59 60 61
60 1 60 61 62
61 1 61 62 63
62 1 62 63 64
63 1 63 64 65
64 1 64 65 66
65 1 65 66 67
66 1 66 67 68
67 1 67 68 69
68 1 68 69 70
69 1 69 70 71
70 1 70 71 72
71 1 71 72 73
72 1 72 73 74
73 1 73 74 75
74 1 74 75 76
75 1 75 76 77
76 1 76 77 78
77 1 77 78 79
78 1 78 79 80
