# LAMMPS configuration file

700 atoms
198 bonds
198 angles

4 atom types
1 bond types
1 angle types

-1e-05 1e-05 xlo xhi
-1e-05 1e-05 ylo yhi
-1e-05 1e-05 zlo zhi

Masses

1 1
2 1
3 1
4 1

Atoms

1 1 2 2.0000000000000002e-11 2.0000000000000002e-11 2.0000000000000002e-11
2 1 1 -9.08124458237917e-09 -6.843702064580792e-08 3.1098019332374417e-09
3 1 1 -3.89994681320533e-07 -2.952830650690847e-07 -2.748347115402485e-09
4 1 2 -2.430230159769297e-07 -5.553863294504602e-07 3.849735073400767e-07
5 1 1 -1.6585542384828894e-07 -6.170404223306661e-07 1.6558271342106593e-07
6 1 1 2.754727787289902e-07 -2.990104036108993e-07 3.0886831179849627e-07
7 1 2 2.9143633524924994e-07 3.3781220066760186e-08 5.444885869810566e-07
8 1 1 2.394550192845999e-08 2.395615657162946e-07 6.669231941522766e-07
9 1 1 -8.109887299174302e-08 4.4541548072509974e-07 5.929997375869283e-07
10 1 1 -1.5990154658088735e-07 7.005421830802116e-07 3.447360236819221e-07
11 1 1 -2.0982339043515224e-07 4.07121067621167e-07 6.423894141926104e-08
12 1 1 -2.090240225981803e-07 6.882195957959686e-07 -2.0457598613334267e-07
13 1 2 -4.901685914916838e-07 3.585013265319105e-07 -4.110211622125705e-07
14 1 1 -1.3659362961085527e-07 6.114126919347834e-07 -4.605560336399935e-08
15 1 2 5.3817836031966137e-08 5.864423728582089e-07 -2.943559323050787e-07
16 1 2 -2.851290889345286e-07 2.5837229195222576e-07 -1.9770264214015005e-07
17 1 2 1.5582417760024388e-07 2.8051469127939777e-07 -1.4127060472682985e-07
18 1 2 1.8951543513663293e-07 -5.999333104274292e-08 -4.986592860279397e-07
19 1 2 2.7728011169546194e-07 -7.477280189964984e-08 -1.2911228854036306e-07
20 1 1 -2.228996369879784e-08 1.9678376889540277e-08 2.5888126139413726e-07
21 1 2 2.41455380583826e-07 -1.3584312728212141e-07 6.078162078036798e-08
22 1 1 1.208144642054903e-07 -3.5931149581703716e-07 2.6437571098839924e-07
23 1 1 -1.4709365831937246e-07 -1.8467277659234246e-07 3.210491819644288e-08
24 1 1 -5.868267656452391e-07 -7.221732808057496e-08 5.5098062886154476e-08
25 1 2 -7.538727958560137e-07 -1.0985067660332602e-07 1.4704822218363687e-07
26 1 2 -7.593884627256878e-07 -8.275025855017833e-08 -1.2984288556930835e-07
27 1 1 -8.992728646789632e-07 -1.2906134197579748e-07 -1.9064155874834398e-07
28 1 2 -7.631037549402626e-07 1.8284984739304338e-07 -3.423375272026846e-07
29 1 2 -6.712055918376905e-07 7.229216202847999e-08 -9.959849087390375e-08
30 1 1 -6.866106619582781e-07 -1.5976551575133995e-08 1.7145452643450138e-07
31 1 1 -6.365342705421787e-07 1.2304340314726544e-07 1.547245136138902e-07
32 1 1 -9.411865936233738e-07 1.8694332699519984e-07 1.8007560623743642e-07
33 1 2 -8.170635876416654e-07 -1.0781699988664628e-07 2.9311070528482774e-09
34 1 1 -7.516693676107543e-07 -1.1460687054105092e-07 -1.0193002147233678e-07
35 1 2 -8.11674800120092e-07 8.039056453750101e-08 -1.627749104974748e-08
36 1 2 -6.083316670221069e-07 -4.714528044737665e-08 -3.934271198608809e-08
37 1 1 -3.7177658113277845e-07 2.609839274464976e-08 1.872219496707836e-07
38 1 2 -2.7915729494584506e-07 -3.7096313916896495e-07 -8.90765168854326e-09
39 1 1 -4.841336977659025e-07 -5.562348345676636e-07 1.0489477206536328e-07
40 1 1 -2.2394568191363607e-07 -6.541726724233035e-07 1.195837855474536e-07
41 1 1 1.7381567139315902e-07 -6.381359405566495e-07 1.3463005040069815e-08
42 1 2 4.745306513779874e-08 -8.491022065266347e-07 1.0024502521598023e-07
43 1 1 -1.764630739060403e-07 -8.691735244559096e-07 -4.04759492046898e-07
44 1 1 -3.768556745838957e-08 -6.28075476873409e-07 -5.42646321146777e-07
45 1 1 3.5824752606889543e-07 -7.650728851074056e-07 -3.0545693745165135e-07
46 1 2 6.928487464442044e-08 -5.4491359256856e-07 -2.8468860932458623e-07
47 1 1 -2.825546613046887e-08 -4.480889539382716e-07 -7.0085127738258e-07
48 1 1 5.122685787846496e-08 -5.860667981592324e-07 -7.374871272303471e-07
49 1 1 -1.731116172549872e-07 -2.3351604155124584e-07 -5.916780738272027e-07
50 1 2 6.503909379734448e-09 -2.505519830317104e-07 -4.5354453742315957e-07
51 1 2 -1.7251877770045887e-07 -1.489256744063049e-07 -4.3615260649359244e-07
52 1 2 -1.8126637514482767e-07 -1.9054443200493068e-07 -4.854832944382413e-07
53 1 1 -3.433178938817075e-07 -3.156238308228807e-07 -2.0872337501387074e-07
54 1 1 -2.5397482266043324e-07 -6.2766902011571e-08 -2.228241827550951e-07
55 1 1 -1.1092368072693618e-07 -3.2836007596580163e-08 -1.1032759871623219e-07
56 1 2 -2.5328600731803264e-07 -2.376088575827905e-07 -2.1210270870229707e-07
57 1 1 -1.519815903727412e-07 -2.7777531234098326e-07 -2.1340552017836868e-07
58 1 1 1.3037812789078682e-07 -3.400439911129621e-07 -3.0330207940997485e-07
59 1 1 -1.362251466265129e-08 4.004863674656159e-08 -1.7544916656161958e-07
60 1 1 1.5502718331613925e-07 1.7577574900668956e-07 2.4084644448582166e-08
61 1 1 -7.582416243263269e-08 -3.2485237447551406e-08 9.185014422314785e-08
62 1 1 -2.4110224522495003e-07 -1.1881686209913519e-07 -1.0737033792163807e-08
63 1 1 -1.3136460854788176e-07 -3.446463996818748e-07 -3.3550954706583224e-08
64 1 1 -2.2170079660378307e-07 -2.6701821029252514e-07 2.641747049416204e-07
65 1 2 1.4227842044206664e-08 -2.4323130276272013e-07 8.9662005041022e-08
66 1 2 5.248921811546082e-07 -3.387035721078152e-07 2.2085640602146775e-07
67 1 1 4.966818207771973e-07 -3.629012953751009e-07 3.581426078674954e-07
68 1 2 3.5992998073482337e-07 -2.420450258757133e-07 5.242176172453175e-07
69 1 2 4.352463627172024e-07 -3.972411085617272e-07 5.33291331513537e-07
70 1 1 2.667655900672905e-07 -4.5686776784058887e-07 4.717326866178737e-07
71 1 1 8.059939391363073e-08 -2.700285863066414e-07 4.264967956652228e-07
72 1 1 -1.425661713825705e-07 -4.655317610660855e-07 5.665736458991694e-07
73 1 1 -2.1857915404130836e-07 -6.094014522397533e-07 2.571817794253867e-07
74 1 1 -8.056995250584846e-08 -5.554546795674174e-07 5.10422370679237e-07
75 1 1 -3.9619133277548065e-08 -4.1886082314138483e-07 5.89496589399088e-07
76 1 1 -1.6888112662021978e-07 -3.645175863989003e-07 8.446885852425497e-07
77 1 1 -6.873664407579467e-08 -3.2876108266221967e-07 9.029936271769102e-07
78 1 1 3.8814926669492284e-08 -2.3233771052272762e-07 8.222951373941297e-07
79 1 2 3.398197179818272e-07 -4.5205218001742796e-07 5.731026949675978e-07
80 1 1 6.270205367083719e-08 -1.7181186746902972e-07 8.845136008060032e-07
81 1 2 3.1786993232703417e-07 -1.1813811271870517e-07 8.739673023424142e-07
82 1 1 1.818687298794428e-07 1.0073914459113612e-07 9.583979569793274e-07
83 1 1 3.931410450805767e-07 -1.1170092534376464e-07 8.561286955913793e-07
84 1 1 -3.904903243316223e-08 -1.6525986633371902e-07 9.07748951344008e-07
85 1 2 1.8222630935506622e-07 -1.967009715948814e-07 8.12455504817907e-07
86 1 2 -7.530974881303008e-08 1.312828545978011e-07 3.305960581469563e-07
87 1 1 -3.039647816516593e-07 2.544393629272945e-07 2.119586993170008e-07
88 1 2 -1.6941899444244964e-07 3.2568549756601677e-07 2.897202028777116e-07
89 1 1 -2.2744930088529792e-07 8.28597684701681e-08 4.974582658054827e-07
90 1 1 -2.793019718704336e-07 5.461489547691156e-08 7.328031553219171e-07
91 1 1 -1.7744607712936054e-07 -3.1490134809716777e-07 8.65255615474963e-07
92 1 1 1.772425932690299e-07 -1.7580282839330857e-07 7.703168341312288e-07
93 1 1 2.6188707269442513e-07 4.957653216629268e-08 6.208449648376887e-07
94 1 1 -1.1056378077793529e-07 3.5454496296636893e-07 8.203715588654954e-07
95 1 1 -3.552285384494843e-07 5.098060210036109e-07 6.383837629909742e-07
96 1 2 -3.188134780671524e-07 6.535387305719305e-07 5.050363721909825e-07
97 1 1 -3.647916793699925e-07 3.6127999035335767e-07 4.439901442960102e-07
98 1 2 -1.7556534633607515e-07 4.793001214423903e-07 2.6117945364163983e-07
99 1 1 -2.788377573017682e-07 4.7606362097634237e-07 3.769663532207192e-07
100 1 1 -2.182030171244475e-07 8.260811958063439e-07 2.653744549389224e-07
101 1 1 -3.3080321083365625e-07 6.402121323535479e-07 3.593122251977675e-07
102 1 1 -1.4829285599171496e-07 6.889837264986624e-07 3.2012307425443326e-07
103 1 2 -1.296475122578422e-07 4.509976689836553e-07 1.9456196162983934e-07
104 1 2 -2.346440554202971e-08 5.564779590244896e-07 3.4988691692471296e-07
105 1 2 3.944993223144948e-08 1.664436451092781e-07 5.526357193488754e-07
106 1 1 1.85806305736488e-07 2.1988176786246193e-07 6.532686711975081e-07
107 1 1 3.7455164747912495e-07 1.773943022471045e-08 7.266910015064628e-07
108 1 1 2.953073869795058e-07 8.49428791221732e-08 3.1323140223859156e-07
109 1 1 3.6227029221115767e-07 4.836209233028982e-07 1.366511854875019e-07
110 1 1 5.058185034183432e-07 3.07511929675908e-07 1.68824769777914e-07
111 1 1 1.7416164235299904e-07 6.294576161731339e-07 1.0970610078020292e-07
112 1 1 2.4652756043610244e-07 5.919121144544294e-07 -2.0206980681305022e-07
113 1 1 8.554412656115116e-11 3.8159666853281846e-07 2.315204432704599e-08
114 1 2 3.847466836864601e-08 6.667785664545712e-07 3.514293682735062e-08
115 1 1 2.998368497300836e-08 5.611773804647935e-07 2.2299225005657253e-07
116 1 1 1.239310376876736e-07 4.650859711505525e-07 1.706758433995501e-07
117 1 1 3.6448122676497493e-07 4.49597279339399e-07 2.508028022630008e-07
118 1 1 1.6390939180668063e-08 4.824313715614473e-07 1.9291244122693237e-07
119 1 1 8.626020778353235e-08 3.336218229799276e-07 4.545509281778528e-07
120 1 1 -1.0435769997393809e-07 2.684361886641073e-07 3.509944879181197e-07
121 1 2 7.142936835757169e-08 -8.287081942181827e-09 3.6827651771113814e-07
122 1 1 4.209739665238418e-08 -7.394935513976038e-08 8.569532378920189e-07
123 1 1 1.9955936806985394e-07 -1.6865031325815567e-07 5.512756868091504e-07
124 1 1 2.3901313480814355e-07 -4.2044078523908433e-07 6.10531888598955e-07
125 1 2 2.564526608270788e-07 -2.072724009390318e-07 2.955695251983321e-07
126 1 2 8.205417246569803e-08 -1.194037149921256e-07 3.433435402288357e-08
127 1 1 3.2079879785890077e-07 -2.671964157631494e-07 9.150971244439437e-08
128 1 1 2.8249333994000034e-07 -3.2799813098894984e-07 4.5081844407521067e-08
129 1 1 4.667721135965861e-07 -4.59057791576139e-07 2.5897736871368147e-07
130 1 2 5.057960228276069e-07 -4.915913473779592e-07 3.544376386523353e-07
131 1 1 6.346447048340678e-07 -3.7741444773450137e-07 3.8158266811545413e-07
132 1 1 6.773622476878423e-07 -5.521961451307897e-07 4.4109322778501536e-07
133 1 2 7.868034372563011e-07 -4.613555521617101e-07 3.350369875276962e-07
134 1 1 7.337724756558839e-07 -4.4446864083938535e-07 5.728400029977685e-08
135 1 2 7.080597610497415e-07 -8.071578507678812e-08 5.827436174432106e-08
136 1 2 5.370466430076327e-07 9.603647936526503e-08 -3.082052338689241e-08
137 1 2 6.247433489845475e-07 7.212496114860605e-08 2.0163374464555135e-07
138 1 1 8.798836447240267e-07 1.0993025930498152e-07 2.581308164417801e-07
139 1 2 7.441040921212889e-07 2.482666377820484e-07 7.09551787638791e-07
140 1 2 4.7295735970371796e-07 1.6266570807250222e-07 8.26304075604065e-07
141 1 2 1.65285451147624e-07 2.3389366376981942e-07 8.55450580597607e-07
142 1 1 4.6401011213342605e-08 1.7459049201720683e-07 6.717770228740581e-07
143 1 1 -8.085672753141809e-08 -6.5712150207950985e-09 5.843530601827146e-07
144 1 1 1.0666023155306841e-07 -1.6739163776677348e-07 5.807547083446418e-07
145 1 1 4.5948431177393835e-07 -2.2441530292021395e-07 8.48615846916919e-07
146 1 2 -2.3086557546562888e-07 -1.0472690646500274e-07 9.646022142736097e-07
147 1 1 5.948756912318984e-08 -1.0992388925427218e-07 7.600939596144556e-07
148 1 1 1.1684669553709566e-08 -4.0823391082985336e-07 5.437611971454614e-07
149 1 1 -9.753875728101681e-08 -4.152286992994011e-07 5.311528228694944e-07
150 1 1 -1.293905032065013e-07 -3.226950090581832e-07 9.193644232286341e-07
151 1 2 9.042792728053262e-08 -3.986085162632864e-07 8.047813050515989e-07
152 1 1 9.346761797093411e-08 -3.264511017276592e-07 7.994229299672607e-07
153 1 1 2.484166300979516e-07 -5.498008466637979e-07 4.547339965469647e-07
154 1 2 6.652621476367103e-08 6.463967638219568e-08 2.488548600177082e-07
155 1 1 5.0263333359695785e-08 -4.21908391761614e-08 2.9610563909657645e-07
156 1 1 8.041132635597836e-08 -8.893837212347237e-08 5.414176983739785e-07
157 1 2 1.0132329955275366e-07 -1.2016745322580352e-08 5.687224297195846e-07
158 1 1 1.8296898507875395e-07 3.409260067955926e-07 3.06834993932214e-07
159 1 1 5.53461490188576e-07 5.1838904250829466e-08 2.7703489931730206e-07
160 1 2 6.38474511196207e-07 1.257678105456287e-07 4.908473324071072e-07
161 1 1 6.043180392522662e-07 -2.1252719188572675e-07 3.8558338485316375e-07
162 1 1 5.554623368949451e-07 -3.303638801621151e-07 7.600983045617106e-09
163 1 1 3.96308021219188e-07 -4.244577906504228e-07 -1.2298339685153373e-08
164 1 1 2.2242260499539572e-07 -3.6519132009227135e-07 -2.0871056435329334e-08
165 1 1 3.808196573756491e-07 -4.819481164025112e-07 -9.984333024903296e-08
166 1 1 7.112654192832533e-08 -2.3042435393721412e-07 3.0176225037235066e-08
167 1 1 -2.2498973368163517e-07 -9.986397445302915e-08 3.3183047019385115e-07
168 1 1 -2.0182762117336102e-07 4.246112739121004e-09 1.7022794495520066e-07
169 1 1 -4.0593020035142907e-07 1.7610929740514382e-07 2.769116593172799e-07
170 1 1 -3.993641280458636e-07 3.349495314199623e-07 -1.830566191213017e-07
171 1 1 -4.3365005528574504e-07 2.571862248986699e-07 -1.4919085351042295e-07
172 1 1 -3.819373139000083e-07 3.238914771486501e-07 -5.1158144180476e-08
173 1 2 -5.6219581653294e-07 7.791753964419209e-07 1.940230052399023e-07
174 1 2 -4.878820213143178e-07 6.486572125523773e-07 1.7079412223423005e-07
175 1 2 -4.477262381043668e-07 5.650175143506641e-07 5.642719196728298e-07
176 1 2 -1.6017877821965622e-07 7.167700074202024e-07 4.026822915949251e-07
177 1 1 -9.944018276165717e-08 5.001596530284014e-07 1.0947331162615158e-07
178 1 1 -5.9389920372280746e-08 5.969954562404264e-07 7.323900449971406e-08
179 1 1 -1.6664625316269238e-07 6.274378661386231e-07 3.3236320017382536e-08
180 1 1 -4.2963566544445897e-07 5.411031633990801e-07 3.4769188921850584e-07
181 1 1 -4.057612016534128e-07 5.426843441010644e-07 6.012442194379275e-07
182 1 1 -5.549465130958894e-07 4.198949562170575e-07 5.402177205762955e-07
183 1 1 -5.949196184150677e-07 4.501784756570852e-07 5.987864246022768e-07
184 1 1 -4.7612627781598904e-07 4.812689551170887e-07 5.516853995215859e-07
185 1 1 -5.877985628642311e-07 3.9122227734329253e-07 2.1836246552686934e-07
186 1 1 -2.626038995853498e-07 4.335476403013398e-07 4.592619263362761e-08
187 1 1 -1.7478466110472885e-07 7.693332607866507e-07 3.527584600203105e-08
188 1 2 -2.198352916798491e-07 4.710085195770092e-07 -1.711232928594688e-07
189 1 2 -3.6766679396578736e-07 6.778284890532761e-07 -1.2453805546006326e-07
190 1 1 -4.3666183843291234e-07 7.548287514052775e-07 -8.790103538524228e-08
191 1 1 -3.1403000370287336e-07 6.311685117333239e-07 2.2916305393292167e-07
192 1 2 -1.7535431351533754e-07 6.338685608253062e-07 2.2696907335558628e-07
193 1 1 -4.5261723477651815e-07 5.512176856369265e-07 5.211816600626075e-07
194 1 1 -3.032028667090025e-07 4.622408721428305e-07 5.143591810180257e-07
195 1 1 -1.929515739695077e-07 7.909162861157592e-07 5.634474085143079e-07
196 1 1 -2.5102407524886e-07 6.291938373770231e-07 5.185473853272163e-07
197 1 2 -2.424638658841107e-08 8.080412984774948e-07 1.7787658485437916e-07
198 1 1 -2.503950940449618e-07 6.586562575305264e-07 3.850029921198268e-07
199 1 2 -4.0442079698007136e-08 7.381656159715335e-07 4.91593995818481e-07
200 1 2 3.195844845226325e-08 6.684939169946061e-07 6.472352200360398e-07
201 2 4 1.1378262989671552e-07 2.617369741395375e-07 -2.350364807945124e-07
202 3 4 7.98590496842901e-07 -9.565378867973346e-07 -8.010653151190743e-07
203 4 4 3.392716601712853e-07 -1.843879474607117e-07 2.235948995263021e-07
204 5 4 -1.904233159440523e-07 6.717245986898752e-07 -9.560210763636677e-07
205 6 4 -3.462357608668101e-07 7.397399093403826e-07 -4.628461670002355e-07
206 7 4 -6.433893007568775e-07 -5.948297671675577e-07 -9.106497247072426e-07
207 8 4 -7.662211540985766e-07 -1.6984191633682695e-07 4.251822759717765e-07
208 9 4 -5.610592276719584e-07 -1.1651961868522422e-07 5.031254871537663e-07
209 10 4 3.830654263914687e-07 4.826560137900302e-07 9.859208552481234e-07
210 11 4 -9.465401613956254e-07 9.644279933072684e-07 -2.2804795583473263e-07
211 12 4 6.228709284990993e-07 -1.023048169351057e-07 -8.139297077215099e-07
212 13 4 -3.6012827304299107e-07 -5.28844098285421e-07 1.3672022388615728e-07
213 14 4 6.885950410982475e-08 -6.449255814808097e-07 -4.945409232657285e-07
214 15 4 1.755213704564477e-07 1.5554283882162492e-07 5.604802534213779e-07
215 16 4 -8.76466915823382e-08 -7.737386378992042e-08 -6.741872763262905e-08
216 17 4 6.253472533916663e-07 -3.0232907715124945e-07 -3.8453975702841837e-07
217 18 4 2.2925481810270325e-07 -1.604321962130852e-08 6.518935639967616e-07
218 19 4 -2.254769526027687e-07 -5.865098778052724e-07 5.019666500342487e-07
219 20 4 5.298644020853325e-07 1.8767098571175502e-08 5.569957964432294e-07
220 21 4 -7.810500458557917e-08 2.4645462199438674e-08 -1.5574086193236923e-07
221 22 4 -5.325081100147231e-07 -6.730527221724349e-07 -1.4967813892066141e-07
222 23 4 3.861936431739432e-07 5.477950503253374e-07 -2.785567529960125e-07
223 24 4 2.450047195783838e-07 4.881509089220196e-07 -8.139717733206138e-08
224 25 4 4.6694862517724315e-07 -8.23677860895421e-07 -4.5926126136501156e-07
225 26 4 9.060335700919087e-07 6.123850038900927e-07 -2.9393315397421382e-08
226 27 4 -7.719428508662945e-07 6.185739909035152e-07 9.643557198758848e-07
227 28 4 -9.420259128136725e-07 9.246675189948746e-07 1.1027320744555408e-07
228 29 4 -8.368086305596757e-08 -7.612864794098805e-07 6.83358047236256e-07
229 30 4 -7.534394936044822e-07 -6.948345008258964e-07 7.020452767159293e-08
230 31 4 3.113772300166983e-07 -5.659609503591798e-07 -3.1168854145997146e-07
231 32 4 -4.150141813083264e-07 7.990239886517373e-08 3.669291290862751e-07
232 33 4 5.865276013737716e-07 6.465099226084884e-07 9.460030291632e-07
233 34 4 2.953067766061247e-07 9.453191685471432e-08 8.02386116615571e-07
234 35 4 8.322749992925763e-07 -8.870292437747786e-07 3.18816557371374e-07
235 36 4 -3.260082381649269e-07 -9.39399042459279e-07 -6.469069258666898e-07
236 37 4 -3.7065757946048964e-07 7.94140279711073e-07 -5.551445376356512e-07
237 38 4 2.702231493658405e-07 8.511220470730037e-07 6.433444792512532e-07
238 39 4 -2.1878543421927367e-07 -2.944204474416674e-07 9.867639216118442e-07
239 40 4 -3.0007616496023766e-07 6.7083751817944e-07 4.106824458814033e-07
240 41 4 -1.8695033290912904e-07 5.684755945576798e-07 6.143103553392824e-07
241 42 4 7.985074682133147e-07 -4.202176443043586e-07 8.54986903553847e-07
242 43 4 9.667804747829461e-07 -5.648367358568876e-07 -8.66228406856396e-07
243 44 4 1.0941742215297315e-07 9.777398547861653e-07 -4.3921256812353724e-07
244 45 4 7.615446406857352e-07 -1.6961423947423323e-07 -8.743846769745308e-07
245 46 4 -7.825766498506725e-07 3.933162191889908e-07 1.1251765785291811e-07
246 47 4 -5.043246765333273e-07 -9.948715604318373e-07 -4.495952604367328e-07
247 48 4 5.406247686071562e-07 -7.226143854853275e-07 7.722906628251613e-07
248 49 4 2.6989689516256406e-07 -1.6375639825326882e-07 -8.279128752970328e-07
249 50 4 5.999295196052775e-07 7.984556162821098e-07 3.356475454444759e-07
250 51 4 1.1308487393564244e-07 5.787846271714599e-07 -3.355405394897407e-08
251 52 4 -8.506474240396833e-07 -1.6709048612549827e-07 -8.020582254879078e-10
252 53 4 -7.721845032918624e-07 -7.570368355940124e-07 5.521574723035225e-07
253 54 4 -6.952384813355381e-07 -3.72784208656002e-07 -6.278188487107548e-07
254 55 4 -4.745069989675408e-07 -1.1391422373123328e-08 -2.7470163590308725e-08
255 56 4 4.129666541652382e-07 5.787138987124427e-07 -2.2070239300527316e-07
256 57 4 -3.573251795418059e-07 -9.959498711550558e-07 -5.766159314719617e-07
257 58 4 1.5550297118516766e-07 4.5073004034680335e-07 3.2638950830084706e-07
258 59 4 -7.675525397994966e-07 4.78634903863487e-07 3.827486653797189e-07
259 60 4 9.99188625171766e-07 -8.820161720091146e-07 -4.827081197360394e-09
260 61 4 3.3013128598394196e-07 3.6158050497093763e-07 7.918414157341037e-08
261 62 4 -7.460161011360566e-07 -8.075967631420282e-07 -8.646880817968156e-07
262 63 4 -8.49570300376661e-07 -1.9057277589657956e-07 6.125928636517276e-07
263 64 4 7.988465942271437e-07 -5.126118423658161e-07 -6.729363515108693e-08
264 65 4 -9.73161528248018e-07 -5.93070911980754e-07 9.339154385242077e-07
265 66 4 -3.369369708396181e-07 -5.557363193715803e-07 1.721901533665103e-07
266 67 4 -7.728964376296465e-07 -3.2045485664770765e-07 -5.00100314020761e-07
267 68 4 7.922926652699875e-07 -2.1326987194743527e-07 -4.4640229560215227e-07
268 69 4 9.267405700975593e-07 1.82428649158396e-07 7.627797345185994e-08
269 70 4 -8.377315961705056e-07 8.83870340460656e-07 -1.5068460101122884e-07
270 71 4 -1.4614733115584562e-07 -1.287016901479554e-07 -1.726941893221252e-07
271 72 4 5.549979156036102e-07 6.409401369384835e-07 9.79105107532613e-07
272 73 4 -3.922270424107004e-07 6.527860083693451e-07 8.837924411056929e-07
273 74 4 1.2848123320615672e-07 6.099237960104318e-07 -6.351465100970575e-07
274 75 4 2.7168068599925367e-07 -1.8355479061490466e-07 -9.493917821087294e-07
275 76 4 -6.216765707771915e-07 -5.879391643691256e-07 -7.117602095961433e-07
276 77 4 2.5716451568429735e-07 9.363986277714781e-07 5.725572390954179e-07
277 78 4 -3.7605692424163426e-07 8.071606821269433e-07 -5.693508389885795e-07
278 79 4 9.897295513120622e-07 -8.319666577040319e-07 -3.7467631868111216e-07
279 80 4 -3.8859953250092636e-07 8.872122266914269e-07 6.263075161372816e-07
280 81 4 -2.643457715980013e-07 -8.610488064922569e-07 -2.451518792849958e-07
281 82 4 -4.911072560308662e-07 6.144296695982013e-07 -8.886942321142287e-07
282 83 4 -9.178431789691739e-07 3.4305927025357774e-07 -4.1792101485152016e-07
283 84 4 -5.771402536201452e-08 -6.459046869604677e-07 5.110979756566043e-07
284 85 4 5.183179221363193e-07 9.877181140137532e-07 -9.756942116865622e-07
285 86 4 -6.471235697036146e-07 7.535814018164793e-07 3.5206386071042365e-07
286 87 4 3.3586200433991057e-07 -2.0528653640220495e-07 9.574881521170474e-07
287 88 4 4.340872278601335e-07 6.494514171101492e-07 -7.316935595326714e-07
288 89 4 2.518489786897244e-07 -9.044108914294801e-07 1.6493045944568794e-07
289 90 4 -5.354947294813888e-07 1.1031529290149337e-08 -5.220283898249183e-07
290 91 4 3.351872896346434e-07 -3.795179790630865e-07 3.0771530283610904e-07
291 92 4 3.6550297182824196e-07 -2.1780312846713112e-07 -7.874371817010208e-07
292 93 4 5.009658053077149e-07 -4.873021671771018e-07 5.550344093804903e-07
293 94 4 -8.514114956113128e-07 -7.548326154309579e-07 2.6137802187097767e-07
294 95 4 1.48244297797584e-07 2.8794361897921463e-07 -9.532770064873293e-07
295 96 4 -4.149060034022767e-07 7.696766514658392e-07 -4.1093897837327863e-07
296 97 4 -7.934853130123833e-07 7.870232123292438e-07 -1.36905069997308e-08
297 98 4 9.900633794107247e-07 6.778002054788145e-07 3.3623209419214584e-07
298 99 4 -4.2028838030118693e-07 -4.329293985476239e-07 6.299395353795833e-07
299 100 4 -5.546426219786054e-08 -5.797953031736671e-08 4.4965991849959e-08
300 101 4 8.111172411791607e-07 -7.546230456156475e-07 -3.3401655560966945e-07
301 102 4 -4.754923046432148e-08 -9.472271272919768e-08 -8.307038198169103e-07
302 103 4 -4.63684983510723e-07 4.477298443655659e-07 3.8043965110757926e-07
303 104 4 -2.5954997705327524e-07 1.1593328287018072e-07 -5.582361259541473e-07
304 105 4 -6.534459284064042e-07 -3.8045333268656977e-07 -1.5589644769104134e-07
305 106 4 -5.827244096471779e-07 -6.907069780285817e-07 -3.8373667973181623e-07
306 107 4 4.522091210052525e-07 4.1614987280661295e-07 -4.641444492079665e-07
307 108 4 7.242005014994646e-08 9.177084583864544e-07 -6.042912456826086e-07
308 109 4 2.158887720832687e-07 -9.676836021802258e-07 -3.132969914481625e-07
309 110 4 -3.266627205090982e-07 2.405883904776763e-07 4.5002653847043453e-07
310 111 4 -4.663587477992181e-07 8.781068555913866e-08 8.072711583083997e-07
311 112 4 -8.150715539364662e-07 -8.26712868443075e-09 1.3431758382919387e-07
312 113 4 -7.590647539216542e-08 6.14543267646173e-07 -6.939454644244766e-07
313 114 4 3.405872311209687e-07 4.215115066186819e-07 -3.058731796842919e-07
314 115 4 3.929579129976573e-07 1.9317688138683931e-07 -9.41762798670912e-07
315 116 4 2.981855129373448e-07 7.971623545105169e-07 2.872835061181709e-07
316 117 4 8.726042458654521e-07 -1.1300884812463278e-07 -1.826282046160463e-07
317 118 4 -9.795100822878316e-07 -5.592129740806968e-07 -5.823038054638118e-07
318 119 4 3.263831949491631e-07 2.568587511702693e-07 -9.355183749055709e-07
319 120 4 1.115648132996005e-07 5.014227981699638e-07 6.265672472776789e-07
320 121 4 -7.942364446265247e-07 -8.782457263076617e-07 -2.184589328331936e-07
321 122 4 -2.7148330266660345e-07 9.37635122701639e-07 -1.32838743297454e-07
322 123 4 6.390012247371337e-07 -2.8972896105709635e-07 -4.891417521322347e-07
323 124 4 -4.060614117530139e-07 5.811949514125978e-07 -3.3389606501413985e-07
324 125 4 -4.217506286728789e-07 -3.709305715419939e-07 4.718374750094732e-08
325 126 4 -5.678396883500578e-07 -6.9547242907722e-07 -1.4518429870682285e-07
326 127 4 -4.608610051346825e-08 1.3996697885791605e-07 -4.279354276615012e-07
327 128 4 2.0190326362577905e-07 2.2874038875557096e-07 -9.754016578727256e-07
328 129 4 -7.749201082942378e-07 1.175306969383195e-08 -8.660210596883044e-07
329 130 4 8.390741296819164e-08 -6.946934281341679e-07 6.072049737666519e-07
330 131 4 -5.263906589102824e-07 6.804078033058675e-07 4.1036983525644206e-07
331 132 4 -3.475886225052274e-07 9.194295081242696e-07 4.040753013491103e-07
332 133 4 3.5104746862981276e-07 -4.154787326959566e-07 -1.305324806285382e-07
333 134 4 -2.2021111391112888e-07 -7.6347390960481e-07 3.8884350781279624e-07
334 135 4 -4.598201190880306e-07 5.4357793476591e-07 7.039704636358952e-07
335 136 4 3.643198673884902e-08 4.486598150993119e-07 -3.498619707087123e-07
336 137 4 5.305386438089308e-07 -6.695615583472465e-07 -7.117778137564326e-07
337 138 4 -4.349492643998605e-07 -5.0784120750795286e-08 3.2247777637702913e-07
338 139 4 -7.88266288678308e-08 -5.105900301436887e-07 -5.472648396191777e-07
339 140 4 -6.239084150473693e-08 7.919425638350378e-07 1.3022523565583177e-07
340 141 4 7.475394491768727e-07 -3.771233190460595e-07 -9.256952760469139e-07
341 142 4 1.4179114042962327e-07 -4.475155279723832e-07 -3.3222516948542326e-08
342 143 4 -9.032484671864891e-07 -6.967097762125559e-07 7.412555146797418e-07
343 144 4 8.635625481852658e-07 7.245401211036436e-08 -9.344624888860477e-07
344 145 4 -9.792531247102599e-07 -4.792028411469326e-07 -6.178842392737591e-07
345 146 4 -4.222929336589001e-07 9.592896323709942e-07 -3.995022682744784e-07
346 147 4 1.0661897840345512e-07 8.137850301880903e-09 3.6011080591736704e-08
347 148 4 7.710780048003648e-07 -1.7783685677166744e-07 -1.1472581101568522e-07
348 149 4 -9.89321841560754e-07 1.9617968554163503e-07 8.083481790141356e-07
349 150 4 -8.641135293283399e-07 -7.721980652132325e-07 -4.249605848313873e-07
350 151 4 9.97964158617966e-07 -3.9640821294099046e-07 -8.163327793520114e-08
351 152 4 -6.783529565131831e-07 -6.378604962966079e-07 -3.1244476940855326e-07
352 153 4 1.266485792960735e-07 -7.709237329749629e-07 -1.5568794957884502e-07
353 154 4 6.47028213005276e-07 -9.820276709379067e-07 -5.550216796871538e-07
354 155 4 4.395587873626564e-07 6.988653771302047e-07 8.786025712952942e-07
355 156 4 3.738657072032311e-07 -3.618408840905358e-07 2.678450297050723e-07
356 157 4 -7.906798329680679e-07 -1.1838501722039063e-07 8.597713429399927e-07
357 158 4 4.3104462083590596e-07 3.336422486676208e-07 1.544265634833772e-07
358 159 4 -9.470198980866508e-07 7.944394714565367e-07 -1.4229456204948003e-07
359 160 4 -1.305557029027602e-07 6.592951068157584e-07 -1.3494524254630044e-07
360 161 4 4.2286328672532365e-07 -8.807212363026377e-07 -5.121426423030517e-07
361 162 4 -8.344432915532285e-07 3.0972817012738495e-08 -5.05045004324516e-07
362 163 4 5.554119155644832e-07 -2.1076756631881562e-08 9.731511362859967e-07
363 164 4 -3.5729602147819575e-07 7.672425152789714e-07 4.748154158304612e-07
364 165 4 8.237472639724216e-07 -2.0671645496438432e-07 5.463475380229049e-07
365 166 4 6.667429424790683e-07 4.6185877012889313e-07 8.602209793851944e-07
366 167 4 -2.228449890486119e-07 9.811354032684118e-07 -8.582943649881747e-07
367 168 4 -4.812435942009287e-07 3.6079955128681675e-07 3.213050852966588e-07
368 169 4 -4.824475484517472e-07 -2.738943462536512e-07 4.5367841058883425e-07
369 170 4 4.6782210393863535e-07 9.832226543880433e-07 -5.374454279552264e-07
370 171 4 -1.4520778644418225e-07 9.22915659384957e-07 4.967760271909507e-07
371 172 4 -3.172679102752893e-08 -7.926137470444439e-07 -5.201277031696763e-07
372 173 4 7.281627027545224e-07 6.125598538746935e-07 8.996529239146161e-07
373 174 4 3.139112846958252e-07 1.0961880439401876e-07 1.3554392962058527e-07
374 175 4 2.5269892344600323e-07 -3.403653430422715e-07 4.72190446104091e-07
375 176 4 -6.785780351095332e-07 -8.589388568300727e-07 6.011543838369241e-07
376 177 4 -6.076898408247722e-07 9.377309499054897e-07 3.010015558986291e-09
377 178 4 4.411041152317657e-07 7.155198295516963e-07 -5.727347064233525e-07
378 179 4 6.100181854894699e-07 2.6453905823102504e-07 6.019862899901223e-08
379 180 4 3.206341007967956e-07 -7.729421634612548e-08 3.5819030360315596e-07
380 181 4 -7.283765789457392e-08 -2.062609727482576e-07 -8.10660693244787e-07
381 182 4 -7.053841421748601e-07 -8.173792033278057e-07 -6.653744285002657e-09
382 183 4 -2.0853379184716166e-07 -3.7119353906998367e-07 3.434265625844025e-07
383 184 4 -9.271305949434176e-07 -5.130648499076464e-07 -4.6823764837745197e-07
384 185 4 -9.181894030335946e-07 -8.697815162128066e-07 9.108687733867929e-07
385 186 4 -8.868034474254595e-07 1.528178359118039e-07 7.620578449958554e-07
386 187 4 -4.4002356130370996e-07 -5.465052331581423e-07 -9.838830612181176e-07
387 188 4 6.879101068803432e-07 -4.329745932552465e-07 -9.662402666243106e-07
388 189 4 -7.76315255356661e-07 7.040733097596196e-07 -1.482928943327249e-07
389 190 4 -5.468224539645203e-07 -4.474843141104241e-07 7.934436025339711e-08