# LAMMPS configuration file

80 atoms
78 bonds
78 angles

1 atom types
1 bond types
1 angle types

-2e-06 2e-06 xlo xhi
-2e-06 2e-06 ylo yhi
-2e-06 2e-06 zlo zhi

Masses

1 1

Atoms

1 1 1 0.0 0.0 0.0
2 1 1 0.016469359333221287 -0.5709717351016638 -0.8208045065167154
3 1 1 -0.11521474692911018 -0.9141991538474639 0.38854275079409484
4 1 1 -0.261269031802544 0.3218043781214394 0.9100441941152281
5 1 1 0.08488651717577297 0.023186900573670916 -0.9961207993228302
6 1 1 -0.024303118979149257 0.21676407104980366 0.9759214599084298
7 1 1 0.8516036409511907 0.5065840934022419 -0.13469890508279542
8 1 1 0.9904962605127205 -0.014454111244769596 -0.13677805590971287
9 1 1 0.05547232054771786 0.7681747144821708 -0.637832603183066
10 1 1 0.51653968348501 0.4494177030505496 -0.7288418783041858
11 1 1 0.6918590589717732 0.15979285258899262 -0.7041287430436033
12 1 1 -0.8308978884099919 0.11316423912018345 0.5447958828957563
13 1 1 -0.8128244794190949 0.5705337775846893 0.11750563515007176
14 1 1 0.35257594477630944 -0.7756905996600317 0.5234446453677344
15 1 1 -0.7098405470655742 0.19984691342617647 -0.6754166187884901
16 1 1 -0.3930590346986742 0.884687466112771 0.25066448201672037
17 1 1 -0.31270187439523206 0.14496828666902245 -0.9387234596034961
18 1 1 0.16847187229010413 0.9217158006911057 0.3493668716455824
19 1 1 0.45664359875201355 0.015445159778342436 -0.8895156382876198
20 1 1 -0.9943125884814974 0.0327448599512847 -0.10134224456757956
21 1 1 0.5870181955457733 0.17991279809200061 -0.7893294769491961
22 1 1 -0.9128177014620851 -0.2110038531958321 -0.3496301157423193
23 1 1 -0.1719062805290817 -0.05182629706152413 0.9837490867327641
24 1 1 -0.29492411054545004 0.5091849172443407 0.8085483838768396
25 1 1 -0.8413876324145003 -0.4815923978180584 -0.24522563973568248
26 1 1 0.6441908264208074 -0.7645583573025077 0.021649421104690356
27 1 1 0.8942366679233456 0.38393140476678156 0.23008141640549326
28 1 1 -0.5313659515575367 -0.8461349375333891 0.04130245768379133
29 1 1 0.5339594563604202 -0.7815833853387665 0.32251311713739295
30 1 1 0.7491021269276327 0.6420619841779054 0.16310245830773978
31 1 1 -0.620592323412678 -0.6324873841461559 -0.4634920463365117
32 1 1 0.88045964601914 -0.4545187820724537 0.13492030416221254
33 1 1 0.930954001390846 -0.17230109728166046 -0.3219269780088466
34 1 1 -0.5291392589996268 -0.10001714795685997 -0.8426198518311218
35 1 1 -0.45730491378599436 -0.017854812131610266 0.8891307111504635
36 1 1 -0.3095001356357638 0.08324271161525773 -0.9472488147284128
37 1 1 0.7488793273789778 -0.2943175080089719 -0.5937650692856549
38 1 1 0.08691786551411247 0.3374142159164136 -0.9373350156438105
39 1 1 -0.4542306301539285 0.6245977860713405 -0.6352575385343687
40 1 1 -0.9583127732217529 -0.24336226674756994 -0.14970449493424684
41 1 1 0.2556326624592341 0.9344328898910024 -0.24796595769168253
42 1 1 0.1682244719531733 -0.8468688865759799 0.5044934251163596
43 1 1 -0.6028517145932355 0.7619734490201309 -0.2365719197207523
44 1 1 0.9521575719884839 -0.3020502208760705 0.04649324868958832
45 1 1 0.08149498290349089 0.07425758500217403 -0.9939036064081892
46 1 1 -0.831041730210188 -0.31890702485489647 0.4557059931002174
47 1 1 0.451311990844512 0.5348446029208589 -0.7143239724707494
48 1 1 0.8793883183559338 -0.3651868353649894 0.30547464840020155
49 1 1 0.5979553482799024 -0.7587638761076831 -0.25831527592750936
50 1 1 -0.40602403630067996 -0.8774835287203935 0.2552785513326779
51 1 1 -0.7669211368335087 -0.5242295828280332 -0.37015579742311866
52 1 1 0.30041875241895843 0.738356756393798 -0.6038028432217475
53 1 1 -0.627361636702888 0.4690077526764618 -0.6216503074260066
54 1 1 0.27522899729612976 0.9433224509204986 -0.18545013517576828
55 1 1 -0.8219794674366715 -0.18761249860111373 -0.5377279102679838
56 1 1 -0.5295359770406972 0.7320343843269451 0.42862257194719067
57 1 1 -0.2864165358685568 0.11667975971523571 -0.9509739226991719
58 1 1 0.09350359622594025 0.14198103423828454 -0.9854432826953784
59 1 1 -0.2745573648803346 -0.5982498637469473 -0.7528049906295293
60 1 1 0.6107765055055033 -0.28605630379911823 -0.7383250309851837
61 1 1 -0.7108098176675696 -0.47997951212831025 0.5141683294840957
62 1 1 -0.2975765439155737 0.051341815451156125 0.9533164314630489
63 1 1 -0.3940092586371237 0.25305618581777 -0.8835831997766744
64 1 1 -0.9097850200299654 0.0670600129301969 -0.4096268692296409
65 1 1 -0.28397592928565896 -0.41795085156129197 -0.8629453964565413
66 1 1 -0.39824957813183043 0.7399781010532096 -0.5420605902290859
67 1 1 0.9441063512374588 0.22457661669704398 0.2413059070681887
68 1 1 -0.5527167640262115 0.6284238248204481 -0.5473460287262819
69 1 1 0.4086812268725038 -0.7947492002246151 -0.44872415083692524
70 1 1 0.5524609280973036 0.7984840969539727 0.23918626598838127
71 1 1 0.2858287096362426 -0.9406622831837306 0.18291095577698882
72 1 1 0.40790001888074523 0.34840544342066904 0.8439379252006244
73 1 1 -0.8760457313781593 0.44171254610459953 -0.19347843070455656
74 1 1 -0.7630054804410646 0.460589731591058 -0.45351927849847495
75 1 1 -0.8408784413997867 0.183581758789638 0.5091376872995836
76 1 1 0.11136145387417586 0.5782445900246811 -0.8082275797683586
77 1 1 -0.0355603045586742 0.8180681299597751 -0.574020905093021
78 1 1 -0.10373018167385316 0.95883588604564 0.2643365147704375
79 1 1 0.2592272989134539 0.636446607828503 -0.726455038444656
80 1 1 -0.5489045112740633 -0.8351004867612464 -0.03620793440823842

Bonds

1 1 1 2
2 1 2 3
3 1 3 4
4 1 4 5
5 1 5 6
6 1 6 7
7 1 7 8
8 1 8 9
9 1 9 10
10 1 10 11
11 1 11 12
12 1 12 13
13 1 13 14
14 1 14 15
15 1 15 16
16 1 16 17
17 1 17 18
18 1 18 19
19 1 19 20
20 1 20 21
21 1 21 22
22 1 22 23
23 1 23 24
24 1 24 25
25 1 25 26
26 1 26 27
27 1 27 28
28 1 28 29
29 1 29 30
30 1 30 31
31 1 31 32
32 1 32 33
33 1 33 34
34 1 34 35
35 1 35 36
36 1 36 37
37 1 37 38
38 1 38 39
39 1 39 40
40 1 40 41
41 1 41 42
42 1 42 43
43 1 43 44
44 1 44 45
45 1 45 46
46 1 46 47
47 1 47 48
48 1 48 49
49 1 49 50
50 1 50 51
51 1 51 52
52 1 52 53
53 1 53 54
54 1 54 55
55 1 55 56
56 1 56 57
57 1 57 58
58 1 58 59
59 1 59 60
60 1 60 61
61 1 61 62
62 1 62 63
63 1 63 64
64 1 64 65
65 1 65 66
66 1 66 67
67 1 67 68
68 1 68 69
69 1 69 70
70 1 70 71
71 1 71 72
72 1 72 73
73 1 73 74
74 1 74 75
75 1 75 76
76 1 76 77
77 1 77 78
78 1 78 79

Angles

1 1 1 2 3
2 1 2 3 4
3 1 3 4 5
4 1 4 5 6
5 1 5 6 7
6 1 6 7 8
7 1 7 8 9
8 1 8 9 10
9 1 9 10 11
10 1 10 11 12
11 1 11 12 13
12 1 12 13 14
13 1 13 14 15
14 1 14 15 16
15 1 15 16 17
16 1 16 17 18
17 1 17 18 19
18 1 18 19 20
19 1 19 20 21
20 1 20 21 22
21 1 21 22 23
22 1 22 23 24
23 1 23 24 25
24 1 24 25 26
25 1 25 26 27
26 1 26 27 28
27 1 27 28 29
28 1 28 29 30
29 1 29 30 31
30 1 30 31 32
31 1 31 32 33
32 1 32 33 34
33 1 33 34 35
34 1 34 35 36
35 1 35 36 37
36 1 36 37 38
37 1 37 38 39
38 1 38 39 40
39 1 39 40 41
40 1 40 41 42
41 1 41 42 43
42 1 42 43 44
43 1 43 44 45
44 1 44 45 46
45 1 45 46 47
46 1 46 47 48
47 1 47 48 49
48 1 48 49 50
49 1 49 50 51
50 1 50 51 52
51 1 51 52 53
52 1 52 53 54
53 1 53 54 55
54 1 54 55 56
55 1 55 56 57
56 1 56 57 58
57 1 57 58 59
58 1 58 59 60
59 1 59 60 61
60 1 60 61 62
61 1 61 62 63
62 1 62 63 64
63 1 63 64 65
64 1 64 65 66
65 1 65 66 67
66 1 66 67 68
67 1 67 68 69
68 1 68 69 70
69 1 69 70 71
70 1 70 71 72
71 1 71 72 73
72 1 72 73 74
73 1 73 74 75
74 1 74 75 76
75 1 75 76 77
76 1 76 77 78
77 1 77 78 79
78 1 78 79 80
